
     Program PWSCF v.6.5 starts on 29Apr2024 at 11:50:34 

     This program is part of the open-source Quantum ESPRESSO suite
     for quantum simulation of materials; please cite
         "P. Giannozzi et al., J. Phys.:Condens. Matter 21 395502 (2009);
         "P. Giannozzi et al., J. Phys.:Condens. Matter 29 465901 (2017);
          URL http://www.quantum-espresso.org", 
     in publications or presentations arising from this work. More details at
     http://www.quantum-espresso.org/quote

     Parallel version (MPI), running on    16 processors

     MPI processes distributed on     1 nodes
     K-points division:     npool     =       4
     R & G space division:  proc/nbgrp/npool/nimage =       4
     Reading input from nscf.in
Warning: card  &IONS ignored
Warning: card  &END ignored

     Current dimensions of program PWSCF are:
     Max number of different atomic species (ntypx) = 10
     Max number of k-points (npk) =  40000
     Max angular momentum in pseudopotentials (lmaxx) =  3

     Atomic positions and unit cell read from directory:
     ./tmp/H3S.save/                                                                                                                                                                                                                                                 
 
               file S.pbe-nl-kjpaw_psl.1.0.0.UPF: wavefunction(s)  3S renormalized
               file H.pbe-kjpaw_psl.1.0.0.UPF: wavefunction(s)  1S renormalized

     Subspace diagonalization in iterative solution of the eigenvalue problem:
     one sub-group per band group will be used
     scalapack distributed-memory algorithm (size of sub-group:  2*  2 procs)

 
     Parallelization info
     --------------------
     sticks:   dense  smooth     PW     G-vecs:    dense   smooth      PW
     Min         333     133     43                 7666     1950     358
     Max         334     134     44                 7668     1951     359
     Sum        1335     535    173                30669     7803    1433
 


     bravais-lattice index     =            3
     lattice parameter (alat)  =       5.8065  a.u.
     unit-cell volume          =      97.8820 (a.u.)^3
     number of atoms/cell      =            4
     number of atomic types    =            2
     number of electrons       =         9.00
     number of Kohn-Sham states=            9
     kinetic-energy cutoff     =      70.0000  Ry
     charge density cutoff     =     700.0000  Ry
     Exchange-correlation= SLA PW PBX PBC
                           (   1   4   3   4   0   0   0)

     celldm(1)=   5.806453  celldm(2)=   0.000000  celldm(3)=   0.000000
     celldm(4)=   0.000000  celldm(5)=   0.000000  celldm(6)=   0.000000

     crystal axes: (cart. coord. in units of alat)
               a(1) = (   0.500000   0.500000   0.500000 )  
               a(2) = (  -0.500000   0.500000   0.500000 )  
               a(3) = (  -0.500000  -0.500000   0.500000 )  

     reciprocal axes: (cart. coord. in units 2 pi/alat)
               b(1) = (  1.000000  0.000000  1.000000 )  
               b(2) = ( -1.000000  1.000000  0.000000 )  
               b(3) = (  0.000000 -1.000000  1.000000 )  


     PseudoPot. # 1 for S  read from file:
     ../pseudo/S.pbe-nl-kjpaw_psl.1.0.0.UPF
     MD5 check sum: eef4e9c50b39a5a6293c7c5139170d2a
     Pseudo is Projector augmented-wave + core cor, Zval =  6.0
     Generated using "atomic" code by A. Dal Corso v.6.3
     Shape of augmentation charge: PSQ
     Using radial grid of 1151 points,  4 beta functions with: 
                l(1) =   0
                l(2) =   0
                l(3) =   1
                l(4) =   1
     Q(r) pseudized with 0 coefficients 


     PseudoPot. # 2 for H  read from file:
     ../pseudo/H.pbe-kjpaw_psl.1.0.0.UPF
     MD5 check sum: de16433e63fdac14aab8ff3e713f4099
     Pseudo is Projector augmented-wave, Zval =  1.0
     Generated using "atomic" code by A. Dal Corso v.6.3
     Shape of augmentation charge: PSQ
     Using radial grid of  929 points,  2 beta functions with: 
                l(1) =   0
                l(2) =   0
     Q(r) pseudized with 0 coefficients 


     atomic species   valence    mass     pseudopotential
        S              6.00    32.06500     S ( 1.00)
        H              1.00     1.00794     H ( 1.00)

     48 Sym. Ops., with inversion, found



   Cartesian axes

     site n.     atom                  positions (alat units)
         1           S   tau(   1) = (   0.0000000   0.0000000   0.0000000  )
         2           H   tau(   2) = (   0.0000000   0.0000000   0.5000000  )
         3           H   tau(   3) = (   0.0000000   0.5000000   0.0000000  )
         4           H   tau(   4) = (  -0.5000000   0.0000000   0.0000000  )

     number of k points=   888  Methfessel-Paxton smearing, width (Ry)=  0.0200

     Number of k-points >= 100: set verbosity='high' to print them.

     Dense  grid:    30669 G-vectors     FFT dimensions: (  45,  45,  45)

     Smooth grid:     7803 G-vectors     FFT dimensions: (  27,  27,  27)

     Estimated max dynamical RAM per process >       5.51 MB

     Estimated total dynamical RAM >      88.19 MB

     The potential is recalculated from file :
     ./tmp/H3S.save/charge-density

     Starting wfcs are    7 randomized atomic wfcs +    2 random wfcs
     Checking if some PAW data can be deallocated... 

     Band Structure Calculation
     Davidson diagonalization with overlap

     ethr =  1.11E-11,  avg # of iterations = 19.2

     total cpu time spent up to now is       21.6 secs

     End of band structure calculation

     Number of k-points >= 100: set verbosity='high' to print the bands.

     the Fermi energy is    15.8264 ev

     Writing output data file ./tmp/H3S.save/
 
     init_run     :      0.19s CPU      0.21s WALL (       1 calls)
     electrons    :     18.15s CPU     20.77s WALL (       1 calls)

     Called by init_run:
     wfcinit      :      0.00s CPU      0.00s WALL (       1 calls)
     potinit      :      0.04s CPU      0.06s WALL (       1 calls)
     hinit0       :      0.06s CPU      0.07s WALL (       1 calls)

     Called by electrons:
     c_bands      :     18.14s CPU     20.76s WALL (       1 calls)
     v_of_rho     :      0.02s CPU      0.02s WALL (       1 calls)
     newd         :      0.00s CPU      0.00s WALL (       1 calls)
     PAW_pot      :      0.01s CPU      0.02s WALL (       1 calls)

     Called by c_bands:
     init_us_2    :      0.02s CPU      0.02s WALL (     222 calls)
     cegterg      :     15.55s CPU     17.23s WALL (     281 calls)

     Called by sum_band:

     Called by *egterg:
     h_psi        :      8.77s CPU     10.02s WALL (    4808 calls)
     s_psi        :      0.10s CPU      0.12s WALL (    4808 calls)
     g_psi        :      0.05s CPU      0.05s WALL (    4305 calls)
     cdiaghg      :      5.53s CPU      5.86s WALL (    4527 calls)

     Called by h_psi:
     h_psi:calbec :      0.20s CPU      0.23s WALL (    4808 calls)
     vloc_psi     :      8.39s CPU      9.59s WALL (    4808 calls)
     add_vuspsi   :      0.11s CPU      0.13s WALL (    4808 calls)

     General routines
     calbec       :      0.17s CPU      0.20s WALL (    4808 calls)
     fft          :      0.01s CPU      0.01s WALL (      13 calls)
     ffts         :      0.00s CPU      0.00s WALL (       1 calls)
     fftw         :      7.81s CPU      8.92s WALL (   60670 calls)
     interpolate  :      0.00s CPU      0.00s WALL (       1 calls)
     davcio       :      0.01s CPU      0.83s WALL (     444 calls)
 
     Parallel routines
     fft_scatt_xy :      0.75s CPU      0.86s WALL (   60684 calls)
     fft_scatt_yz :      2.86s CPU      3.32s WALL (   60684 calls)
 
     PWSCF        :     19.09s CPU     23.94s WALL

 
   This run was terminated on:  11:50:58  29Apr2024            

=------------------------------------------------------------------------------=
   JOB DONE.
=------------------------------------------------------------------------------=
