unknown system                          
   1.0000000000000000     
     2.963800    0.000000    0.000000
     0.000000    2.963800    0.000000
     0.000000    0.000000    4.186510
   Ca   Y    H 
     1     1    20
Direct
  1.000000  1.000000  0.999997
  0.500000  0.500000  0.499999
  0.256400  0.500000  0.115800
  0.743600  0.500000  0.115800
  0.500000  0.256400  0.115800
  0.500000  0.743600  0.115800
  0.743600  0.500000  0.884198
  0.256400  0.500000  0.884198
  0.500000  0.256400  0.884198
  0.500000  0.743600  0.884198
  1.000000  0.500000  0.758298
  0.500000  1.000000  0.758298
  1.000000  0.500000  0.241699
  0.500000  1.000000  0.241699
  0.237300  1.000000  0.373199
  0.762700  1.000000  0.373199
  1.000000  0.237300  0.373199
  1.000000  0.762700  0.373199
  0.762700  1.000000  0.626798
  0.237300  1.000000  0.626798
  1.000000  0.237300  0.626798
  1.000000  0.762700  0.626798

   56   56   72
  284.38      282.27      276.03      265.91      252.36      235.90      217.17      196.86      175.65      154.20    
  133.13      112.99      94.248      77.289      62.414      49.815      39.568      31.621      25.796      21.807    
  19.285      17.819      17.025      16.687      16.643      16.753      16.909      17.033      17.079      17.033    
  16.909      16.753      16.643      16.687      17.025      17.819      19.285      21.808      25.797      31.621    
  39.568      49.816      62.415      77.290      94.249      112.99      133.14      154.20      175.65      196.86    
  217.17      235.90      252.36      265.92      276.03      282.27      282.27      280.17      273.97      263.93    
  250.46      234.11      215.51      195.34      174.28      152.98      132.07      112.08      93.483      76.666    
  61.924      49.447      39.310      31.459      25.715      21.792      19.321      17.893      17.130      16.818    
  16.794      16.921      17.089      17.220      17.268      17.220      17.089      16.921      16.794      16.818    
  17.130      17.893      19.321      21.792      25.715      31.459      39.311      49.448      61.924      76.667    
  93.484      112.08      132.07      152.98      174.28      195.34      215.51      234.11      250.46      263.93    
  273.97      280.17      276.03      273.97      267.89      258.04      244.85      228.83      210.61      190.85    
  170.23      149.39      128.93      109.39      91.228      74.829      60.480      48.366      38.554      30.985    
  25.480      21.750      19.431      18.117      17.445      17.209      17.248      17.425      17.628      17.781    
  17.837      17.781      17.628      17.425      17.248      17.209      17.445      18.117      19.431      21.750    
  25.480      30.986      38.554      48.367      60.481      74.830      91.229      109.39      128.93      149.39    
  170.23      190.85      210.61      228.83      244.85      258.05      267.89      273.97      265.91      263.93    
  258.04      248.52      235.76      220.28      202.68      183.59      163.68      143.58      123.85      105.04    
  87.593      71.873      58.162      46.635      37.347      30.234      25.112      21.693      19.618      18.489    
  17.967      17.859      18.004      18.265      18.531      18.721      18.790      18.721      18.531      18.265    
  18.004      17.859      17.967      18.489      19.618      21.694      25.112      30.235      37.347      46.635    
  58.163      71.874      87.594      105.04      123.86      143.58      163.68      183.59      202.68      220.28    
  235.76      248.52      258.05      263.93      252.36      250.46      244.85      235.76      223.59      208.83    
  192.06      173.88      154.93      135.81      117.08      99.253      82.758      67.951      55.096      44.353    
  35.766      29.261      24.648      21.641      19.890      19.009      18.693      18.764      19.060      19.442    
  19.797      20.043      20.131      20.043      19.797      19.442      19.060      18.764      18.693      19.009    
  19.890      21.642      24.648      29.261      35.767      44.354      55.097      67.952      82.759      99.254    
  117.08      135.81      154.93      173.88      192.06      208.83      223.59      235.76      244.85      250.46    
  235.90      234.11      228.83      220.28      208.83      194.95      179.19      162.12      144.34      126.42    
  108.91      92.281      76.951      63.257      51.443      41.650      33.909      28.133      24.129      21.616    
  20.252      19.673      19.618      19.917      20.409      20.951      21.426      21.747      21.860      21.747    
  21.426      20.951      20.409      19.917      19.618      19.673      20.252      21.616      24.129      28.133    
  33.909      41.651      51.443      63.258      76.952      92.282      108.91      126.42      144.34      162.12    
  179.19      194.95      208.83      220.28      228.83      234.11      217.17      215.51      210.61      202.68    
  192.06      179.19      164.58      148.78      132.34      115.81      99.686      84.434      70.440      58.017    
  47.388      38.674      31.885      26.927      23.603      21.639      20.707      20.475      20.729      21.304    
  22.037      22.780      23.407      23.823      23.968      23.823      23.407      22.780      22.037      21.304    
  20.729      20.475      20.707      21.639      23.603      26.927      31.886      38.674      47.389      58.018    
  70.441      84.434      99.687      115.81      132.34      148.78      164.58      179.19      192.06      202.68    
  210.61      215.51      196.86      195.34      190.85      183.59      173.88      162.12      148.78      134.36    
  119.40      104.38      89.789      76.046      63.513      52.477      43.133      35.580      29.812      25.722    
  23.116      21.729      21.252      21.402      22.006      22.899      23.915      24.896      25.707      26.238    
  26.424      26.238      25.707      24.896      23.915      22.899      22.006      21.402      21.252      21.729    
  23.116      25.722      29.812      35.580      43.134      52.477      63.514      76.047      89.790      104.38    
  119.40      134.36      148.78      162.12      173.88      183.59      190.85      195.34      175.65      174.28    
  170.23      163.68      154.93      144.34      132.34      119.40      105.99      92.581      79.607      67.459    
  56.466      46.883      38.878      32.525      27.801      24.593      22.708      21.897      21.877      22.434    
  23.416      24.658      25.990      27.242      28.262      28.927      29.158      28.927      28.262      27.242    
  25.990      24.658      23.416      22.434      21.877      21.897      22.708      24.593      27.802      32.526    
  38.879      46.884      56.467      67.460      79.608      92.581      105.99      119.40      132.34      144.34    
  154.93      163.68      170.23      174.28      154.20      152.98      149.39      143.58      135.81      126.42    
  115.81      104.38      92.581      80.828      69.519      59.007      49.585      41.476      34.816      29.656    
  25.958      23.603      22.408      22.142      22.567      23.536      24.906      26.513      28.178      29.719    
  30.966      31.776      32.057      31.776      30.966      29.719      28.178      26.512      24.906      23.536    
  22.567      22.142      22.409      23.603      25.958      29.656      34.816      41.476      49.586      59.007    
  69.520      80.828      92.581      104.38      115.81      126.42      135.81      143.58      149.39      152.98    
  133.13      132.07      128.93      123.85      117.08      108.91      99.686      89.789      79.607      69.519    
  59.879      50.999      43.134      36.470      31.115      27.097      24.365      22.801      22.231      22.450    
  23.298      24.661      26.405      28.367      30.362      32.191      33.665      34.623      34.955      34.623    
  33.665      32.191      30.361      28.367      26.405      24.661      23.298      22.450      22.231      22.801    
  24.365      27.098      31.116      36.470      43.134      50.999      59.879      69.520      79.608      89.790    
  99.686      108.91      117.08      123.86      128.93      132.07      112.99      112.08      109.39      105.04    
  99.253      92.281      84.434      76.046      67.459      59.007      50.999      43.703      37.336      32.047    
  27.915      24.948      23.086      22.214      22.175      22.812      24.036      25.749      27.826      30.106    
  32.396      34.487      36.169      37.260      37.639      37.260      36.169      34.487      32.396      30.105    
  27.826      25.749      24.036      22.812      22.175      22.214      23.086      24.949      27.916      32.047    
  37.336      43.703      50.999      59.007      67.460      76.046      84.434      92.281      99.254      105.04    
  109.39      112.08      94.248      93.483      91.228      87.593      82.758      76.951      70.440      63.513    
  56.466      49.585      43.134      37.336      32.367      28.342      25.314      23.273      22.154      21.850    
  22.228      23.212      24.742      26.735      29.073      31.600      34.122      36.418      38.263      39.463    
  39.879      39.463      38.263      36.418      34.122      31.600      29.073      26.735      24.742      23.212    
  22.228      21.850      22.154      23.273      25.314      28.342      32.367      37.336      43.134      49.586    
  56.467      63.514      70.440      76.952      82.758      87.594      91.228      93.483      77.289      76.666    
  74.829      71.873      67.951      63.257      58.017      52.477      46.883      41.476      36.470      32.047    
  28.342      25.439      23.366      22.100      21.575      21.695      22.391      23.634      25.379      27.555    
  30.056      32.732      35.391      37.807      39.752      41.019      41.459      41.019      39.752      37.807    
  35.391      32.732      30.056      27.555      25.379      23.634      22.391      21.695      21.575      22.100    
  23.366      25.439      28.342      32.047      36.470      41.476      46.884      52.477      58.018      63.257    
  67.951      71.874      74.829      76.666      62.414      61.924      60.480      58.162      55.096      51.443    
  47.388      43.133      38.878      34.816      31.115      27.915      25.314      23.366      22.078      21.420    
  21.327      21.745      22.663      24.065      25.917      28.162      30.706      33.410      36.089      38.521    
  40.480      41.759      42.204      41.759      40.480      38.521      36.089      33.410      30.706      28.162    
  25.917      24.065      22.663      21.745      21.327      21.420      22.079      23.366      25.314      27.916    
  31.116      34.816      38.879      43.133      47.389      51.443      55.096      58.163      60.480      61.924    
  49.815      49.447      48.366      46.635      44.353      41.650      38.674      35.580      32.525      29.656    
  27.097      24.948      23.273      22.100      21.420      21.196      21.392      22.009      23.047      24.497    
  26.340      28.531      30.990      33.590      36.161      38.494      40.373      41.599      42.026      41.599    
  40.373      38.494      36.161      33.590      30.989      28.531      26.340      24.497      23.047      22.009    
  21.392      21.196      21.420      22.100      23.273      24.948      27.098      29.656      32.526      35.580    
  38.674      41.650      44.353      46.635      48.366      49.447      39.568      39.310      38.554      37.347    
  35.766      33.909      31.885      29.812      27.801      25.958      24.365      23.086      22.154      21.575    
  21.327      21.392      21.780      22.496      23.548      24.938      26.655      28.670      30.915      33.285    
  35.625      37.747      39.455      40.568      40.955      40.568      39.455      37.747      35.625      33.285    
  30.915      28.670      26.655      24.938      23.548      22.496      21.780      21.392      21.327      21.575    
  22.154      23.086      24.365      25.958      27.802      29.812      31.885      33.909      35.766      37.347    
  38.554      39.310      31.621      31.459      30.985      30.234      29.261      28.133      26.927      25.722    
  24.593      23.603      22.801      22.214      21.850      21.695      21.745      22.009      22.496      23.217    
  24.183      25.407      26.890      28.616      30.535      32.560      34.563      36.382      37.845      38.797    
  39.127      38.797      37.845      36.382      34.563      32.560      30.535      28.616      26.890      25.407    
  24.183      23.217      22.496      22.009      21.745      21.695      21.850      22.214      22.801      23.603    
  24.593      25.722      26.927      28.133      29.261      30.235      30.985      31.459      25.796      25.715    
  25.480      25.112      24.648      24.129      23.603      23.116      22.708      22.408      22.231      22.175    
  22.228      22.391      22.663      23.047      23.548      24.183      24.971      25.934      27.088      28.431    
  29.932      31.526      33.111      34.557      35.724      36.485      36.749      36.485      35.724      34.557    
  33.111      31.526      29.932      28.431      27.088      25.934      24.971      24.183      23.548      23.047    
  22.663      22.391      22.228      22.175      22.231      22.408      22.708      23.116      23.603      24.129    
  24.648      25.112      25.480      25.715      21.807      21.792      21.750      21.693      21.641      21.616    
  21.639      21.729      21.897      22.142      22.450      22.812      23.212      23.634      24.065      24.497    
  24.938      25.407      25.934      26.556      27.303      28.190      29.206      30.310      31.428      32.462    
  33.304      33.856      34.048      33.856      33.304      32.462      31.428      30.310      29.206      28.190    
  27.303      26.556      25.934      25.407      24.938      24.497      24.065      23.634      23.212      22.812    
  22.450      22.142      21.897      21.729      21.639      21.616      21.641      21.694      21.750      21.792    
  19.285      19.321      19.431      19.618      19.890      20.252      20.707      21.252      21.877      22.567    
  23.298      24.036      24.742      25.379      25.917      26.340      26.655      26.890      27.088      27.303    
  27.583      27.964      28.456      29.040      29.671      30.280      30.791      31.131      31.250      31.131    
  30.791      30.280      29.671      29.040      28.456      27.964      27.583      27.303      27.088      26.890    
  26.655      26.340      25.917      25.379      24.742      24.036      23.298      22.567      21.877      21.252    
  20.707      20.252      19.890      19.618      19.431      19.321      17.819      17.893      18.117      18.489    
  19.009      19.673      20.475      21.402      22.434      23.536      24.661      25.749      26.735      27.555    
  28.162      28.531      28.670      28.616      28.431      28.190      27.964      27.811      27.762      27.824    
  27.974      28.170      28.361      28.499      28.549      28.499      28.361      28.170      27.974      27.824    
  27.762      27.811      27.964      28.190      28.431      28.616      28.670      28.531      28.162      27.555    
  26.735      25.749      24.661      23.536      22.434      21.402      20.475      19.673      19.009      18.489    
  18.117      17.893      17.025      17.130      17.445      17.967      18.693      19.618      20.729      22.006    
  23.416      24.906      26.405      27.826      29.073      30.056      30.706      30.990      30.915      30.535    
  29.932      29.206      28.456      27.762      27.181      26.739      26.434      26.246      26.144      26.098    
  26.086      26.098      26.144      26.246      26.434      26.739      27.181      27.762      28.456      29.206    
  29.932      30.535      30.915      30.990      30.706      30.056      29.073      27.826      26.405      24.906    
  23.416      22.006      20.729      19.618      18.693      17.967      17.445      17.130      16.687      16.818    
  17.209      17.859      18.764      19.917      21.304      22.899      24.658      26.513      28.367      30.106    
  31.600      32.732      33.410      33.590      33.285      32.560      31.526      30.310      29.040      27.824    
  26.739      25.829      25.112      24.582      24.223      24.017      23.950      24.017      24.223      24.582    
  25.112      25.829      26.739      27.824      29.040      30.310      31.526      32.560      33.285      33.590    
  33.410      32.732      31.600      30.105      28.367      26.513      24.658      22.899      21.304      19.917    
  18.764      17.859      17.209      16.818      16.643      16.794      17.248      18.004      19.060      20.409    
  22.037      23.915      25.990      28.178      30.362      32.396      34.122      35.391      36.089      36.161    
  35.625      34.563      33.111      31.428      29.671      27.974      26.434      25.112      24.037      23.216    
  22.641      22.302      22.190      22.302      22.641      23.216      24.037      25.112      26.434      27.974    
  29.671      31.428      33.111      34.563      35.625      36.161      36.089      35.391      34.122      32.396    
  30.361      28.178      25.990      23.915      22.037      20.409      19.060      18.004      17.248      16.794    
  16.753      16.921      17.425      18.265      19.442      20.951      22.780      24.896      27.242      29.719    
  32.191      34.487      36.418      37.807      38.521      38.494      37.747      36.382      34.557      32.462    
  30.280      28.170      26.246      24.582      23.216      22.161      21.415      20.972      20.825      20.972    
  21.415      22.161      23.216      24.582      26.246      28.170      30.280      32.462      34.557      36.382    
  37.747      38.494      38.521      37.807      36.418      34.487      32.191      29.719      27.242      24.896    
  22.780      20.951      19.442      18.265      17.425      16.921      16.909      17.089      17.628      18.531    
  19.797      21.426      23.407      25.707      28.262      30.966      33.665      36.169      38.263      39.752    
  40.480      40.373      39.455      37.845      35.724      33.304      30.791      28.361      26.144      24.223    
  22.641      21.415      20.545      20.027      19.855      20.027      20.545      21.415      22.641      24.223    
  26.144      28.361      30.791      33.304      35.724      37.845      39.455      40.373      40.480      39.752    
  38.263      36.169      33.665      30.966      28.262      25.707      23.407      21.426      19.797      18.531    
  17.628      17.089      17.033      17.220      17.781      18.721      20.043      21.747      23.823      26.238    
  28.927      31.776      34.623      37.260      39.463      41.019      41.759      41.599      40.568      38.797    
  36.485      33.856      31.131      28.499      26.098      24.017      22.302      20.972      20.027      19.464    
  19.277      19.464      20.027      20.972      22.302      24.017      26.098      28.499      31.131      33.856    
  36.485      38.797      40.568      41.599      41.759      41.019      39.463      37.260      34.623      31.776    
  28.927      26.238      23.823      21.747      20.043      18.721      17.781      17.220      17.079      17.268    
  17.837      18.790      20.131      21.860      23.968      26.424      29.158      32.057      34.955      37.639    
  39.879      41.459      42.204      42.026      40.955      39.127      36.749      34.048      31.250      28.549    
  26.086      23.950      22.190      20.825      19.855      19.277      19.085      19.277      19.855      20.825    
  22.190      23.950      26.086      28.549      31.250      34.048      36.749      39.127      40.955      42.026    
  42.204      41.459      39.879      37.639      34.955      32.057      29.158      26.424      23.968      21.860    
  20.131      18.790      17.837      17.268      17.033      17.220      17.781      18.721      20.043      21.747    
  23.823      26.238      28.927      31.776      34.623      37.260      39.463      41.019      41.759      41.599    
  40.568      38.797      36.485      33.856      31.131      28.499      26.098      24.017      22.302      20.972    
  20.027      19.464      19.277      19.464      20.027      20.972      22.302      24.017      26.098      28.499    
  31.131      33.856      36.485      38.797      40.568      41.599      41.759      41.019      39.463      37.260    
  34.623      31.776      28.927      26.238      23.823      21.747      20.043      18.721      17.781      17.220    
  16.909      17.089      17.628      18.531      19.797      21.426      23.407      25.707      28.262      30.966    
  33.665      36.169      38.263      39.752      40.480      40.373      39.455      37.845      35.724      33.304    
  30.791      28.361      26.144      24.223      22.641      21.415      20.545      20.027      19.855      20.027    
  20.545      21.415      22.641      24.223      26.144      28.361      30.791      33.304      35.724      37.845    
  39.455      40.373      40.480      39.752      38.263      36.169      33.665      30.966      28.262      25.707    
  23.407      21.426      19.797      18.531      17.628      17.089      16.753      16.921      17.425      18.265    
  19.442      20.951      22.780      24.896      27.242      29.719      32.191      34.487      36.418      37.807    
  38.521      38.494      37.747      36.382      34.557      32.462      30.280      28.170      26.246      24.582    
  23.216      22.161      21.415      20.972      20.825      20.972      21.415      22.161      23.216      24.582    
  26.246      28.170      30.280      32.462      34.557      36.382      37.747      38.494      38.521      37.807    
  36.418      34.487      32.191      29.719      27.242      24.896      22.780      20.951      19.442      18.265    
  17.425      16.921      16.643      16.794      17.248      18.004      19.060      20.409      22.037      23.915    
  25.990      28.178      30.361      32.396      34.122      35.391      36.089      36.161      35.625      34.563    
  33.111      31.428      29.671      27.974      26.434      25.112      24.037      23.216      22.641      22.302    
  22.190      22.302      22.641      23.216      24.037      25.112      26.434      27.974      29.671      31.428    
  33.111      34.563      35.625      36.161      36.089      35.391      34.122      32.396      30.361      28.178    
  25.990      23.915      22.037      20.409      19.060      18.004      17.248      16.794      16.687      16.818    
  17.209      17.859      18.764      19.917      21.304      22.899      24.658      26.512      28.367      30.105    
  31.600      32.732      33.410      33.590      33.285      32.560      31.526      30.310      29.040      27.824    
  26.739      25.829      25.112      24.582      24.223      24.017      23.950      24.017      24.223      24.582    
  25.112      25.829      26.739      27.824      29.040      30.310      31.526      32.560      33.285      33.590    
  33.410      32.732      31.600      30.105      28.367      26.512      24.658      22.899      21.304      19.917    
  18.764      17.859      17.209      16.818      17.025      17.130      17.445      17.967      18.693      19.618    
  20.729      22.006      23.416      24.906      26.405      27.826      29.073      30.056      30.706      30.989    
  30.915      30.535      29.932      29.206      28.456      27.762      27.181      26.739      26.434      26.246    
  26.144      26.098      26.086      26.098      26.144      26.246      26.434      26.739      27.181      27.762    
  28.456      29.206      29.932      30.535      30.915      30.989      30.706      30.056      29.073      27.826    
  26.405      24.906      23.416      22.006      20.729      19.618      18.693      17.967      17.445      17.130    
  17.819      17.893      18.117      18.489      19.009      19.673      20.475      21.402      22.434      23.536    
  24.661      25.749      26.735      27.555      28.162      28.531      28.670      28.616      28.431      28.190    
  27.964      27.811      27.762      27.824      27.974      28.170      28.361      28.499      28.549      28.499    
  28.361      28.170      27.974      27.824      27.762      27.811      27.964      28.190      28.431      28.616    
  28.669      28.531      28.162      27.555      26.735      25.749      24.661      23.536      22.434      21.402    
  20.475      19.673      19.009      18.489      18.117      17.893      19.285      19.321      19.431      19.618    
  19.890      20.252      20.707      21.252      21.877      22.567      23.298      24.036      24.742      25.379    
  25.917      26.340      26.655      26.890      27.088      27.303      27.583      27.964      28.456      29.040    
  29.671      30.280      30.791      31.131      31.250      31.131      30.791      30.280      29.671      29.040    
  28.456      27.964      27.583      27.303      27.088      26.890      26.655      26.340      25.917      25.379    
  24.742      24.036      23.298      22.567      21.877      21.252      20.707      20.252      19.890      19.618    
  19.431      19.321      21.808      21.792      21.750      21.694      21.642      21.616      21.639      21.729    
  21.897      22.142      22.450      22.812      23.212      23.634      24.065      24.497      24.938      25.407    
  25.934      26.556      27.303      28.190      29.206      30.310      31.428      32.462      33.304      33.856    
  34.048      33.856      33.304      32.462      31.428      30.310      29.206      28.190      27.303      26.556    
  25.934      25.407      24.938      24.497      24.064      23.634      23.212      22.812      22.450      22.142    
  21.897      21.729      21.639      21.616      21.642      21.694      21.750      21.792      25.797      25.715    
  25.480      25.112      24.648      24.129      23.603      23.116      22.708      22.409      22.231      22.175    
  22.228      22.391      22.663      23.047      23.548      24.183      24.971      25.934      27.088      28.431    
  29.932      31.526      33.111      34.557      35.724      36.485      36.749      36.485      35.724      34.557    
  33.111      31.526      29.932      28.431      27.088      25.934      24.971      24.183      23.548      23.047    
  22.663      22.391      22.228      22.175      22.231      22.409      22.708      23.116      23.603      24.129    
  24.648      25.112      25.480      25.715      31.621      31.459      30.986      30.235      29.261      28.133    
  26.927      25.722      24.593      23.603      22.801      22.214      21.850      21.695      21.745      22.009    
  22.496      23.217      24.183      25.407      26.890      28.616      30.535      32.560      34.563      36.382    
  37.845      38.797      39.127      38.797      37.845      36.382      34.563      32.560      30.535      28.616    
  26.890      25.407      24.183      23.217      22.496      22.009      21.745      21.695      21.850      22.214    
  22.801      23.603      24.593      25.722      26.927      28.133      29.261      30.235      30.986      31.459    
  39.568      39.311      38.554      37.347      35.767      33.909      31.886      29.812      27.802      25.958    
  24.365      23.086      22.154      21.575      21.327      21.392      21.780      22.496      23.548      24.938    
  26.655      28.670      30.915      33.285      35.625      37.747      39.455      40.568      40.955      40.568    
  39.455      37.747      35.625      33.285      30.915      28.669      26.655      24.938      23.548      22.496    
  21.780      21.392      21.327      21.575      22.154      23.086      24.366      25.958      27.802      29.812    
  31.886      33.909      35.767      37.347      38.554      39.311      49.816      49.448      48.367      46.635    
  44.354      41.651      38.674      35.580      32.526      29.656      27.098      24.949      23.273      22.100    
  21.420      21.196      21.392      22.009      23.047      24.497      26.340      28.531      30.990      33.590    
  36.161      38.494      40.373      41.599      42.026      41.599      40.373      38.494      36.161      33.590    
  30.989      28.531      26.340      24.497      23.047      22.009      21.392      21.196      21.420      22.100    
  23.273      24.949      27.098      29.656      32.526      35.580      38.674      41.651      44.354      46.635    
  48.367      49.448      62.415      61.924      60.481      58.163      55.097      51.443      47.389      43.134    
  38.879      34.816      31.116      27.916      25.314      23.366      22.079      21.420      21.327      21.745    
  22.663      24.065      25.917      28.162      30.706      33.410      36.089      38.521      40.480      41.759    
  42.204      41.759      40.480      38.521      36.089      33.410      30.706      28.162      25.917      24.064    
  22.663      21.745      21.327      21.420      22.079      23.366      25.315      27.916      31.116      34.816    