unknown system                          
   1.0000000000000000     
     2.963800    0.000000    0.000000
     0.000000    2.963800    0.000000
     0.000000    0.000000    4.186510
   Ca   Y    H 
     1     1    20
Direct
  1.000000  1.000000  0.999997
  0.500000  0.500000  0.499999
  0.256400  0.500000  0.115800
  0.743600  0.500000  0.115800
  0.500000  0.256400  0.115800
  0.500000  0.743600  0.115800
  0.743600  0.500000  0.884198
  0.256400  0.500000  0.884198
  0.500000  0.256400  0.884198
  0.500000  0.743600  0.884198
  1.000000  0.500000  0.758298
  0.500000  1.000000  0.758298
  1.000000  0.500000  0.241699
  0.500000  1.000000  0.241699
  0.237300  1.000000  0.373199
  0.762700  1.000000  0.373199
  1.000000  0.237300  0.373199
  1.000000  0.762700  0.373199
  0.762700  1.000000  0.626798
  0.237300  1.000000  0.626798
  1.000000  0.237300  0.626798
  1.000000  0.762700  0.626798

   56   56   72
 0.28438371403E+03 0.28227182978E+03 0.27602708105E+03 0.26591470955E+03 0.25235538789E+03
 0.23589525235E+03 0.21716829642E+03 0.19685544943E+03 0.17564525003E+03 0.15420055763E+03
 0.13313405080E+03 0.11299261263E+03 0.94247971900E+02 0.77289329787E+02 0.62414074846E+02
 0.49815235603E+02 0.39568023134E+02 0.31620797962E+02 0.25796391097E+02 0.21807442511E+02
 0.19285348324E+02 0.17818506533E+02 0.17025094683E+02 0.16687160972E+02 0.16642830037E+02
 0.16753196555E+02 0.16908949226E+02 0.17032763675E+02 0.17079038702E+02 0.17032762090E+02
 0.16908946813E+02 0.16753194819E+02 0.16642831420E+02 0.16687168862E+02 0.17025113957E+02
 0.17818542892E+02 0.19285416969E+02 0.21807568023E+02 0.25796598373E+02 0.31621110682E+02
 0.39568461317E+02 0.49815814123E+02 0.62414801787E+02 0.77290205718E+02 0.94248989244E+02
 0.11299375574E+03 0.13313529597E+03 0.15420187363E+03 0.17564659870E+03 0.19685678680E+03
 0.21716957416E+03 0.23589641999E+03 0.25235639563E+03 0.26591551160E+03 0.27602763904E+03
 0.28227211604E+03 0.28227182978E+03 0.28017389865E+03 0.27397052732E+03 0.26392552333E+03
 0.25045719019E+03 0.23410844972E+03 0.21550942675E+03 0.19533683409E+03 0.17427500290E+03
 0.15298292792E+03 0.13206996986E+03 0.11208026748E+03 0.93483237790E+02 0.76665968168E+02
 0.61923740889E+02 0.49447443930E+02 0.39310256087E+02 0.31458899862E+02 0.25715270467E+02
 0.21791971634E+02 0.19321272907E+02 0.17893176822E+02 0.17130143715E+02 0.16817721326E+02
 0.16794282329E+02 0.16921028608E+02 0.17088616649E+02 0.17219609117E+02 0.17268292116E+02
 0.17219607421E+02 0.17088614014E+02 0.16921026538E+02 0.16794283268E+02 0.16817728650E+02
 0.17130162274E+02 0.17893212272E+02 0.19321340030E+02 0.21792094848E+02 0.25715474543E+02
 0.31459208385E+02 0.39310689015E+02 0.49448016116E+02 0.61924460447E+02 0.76666835712E+02
 0.93484245865E+02 0.11208140055E+03 0.13207120437E+03 0.15298423286E+03 0.17427634038E+03
 0.19533816041E+03 0.21551069393E+03 0.23410960769E+03 0.25045818958E+03 0.26392631869E+03
 0.27397108066E+03 0.28017418251E+03 0.27602708105E+03 0.27397052732E+03 0.26788984132E+03
 0.25804452199E+03 0.24484578617E+03 0.22882697726E+03 0.21060674997E+03 0.19084935057E+03
 0.17022670547E+03 0.14938641780E+03 0.12892805405E+03 0.10938761464E+03 0.91227602542E+02
 0.74828760415E+02 0.60480052772E+02 0.48365977930E+02 0.38553713245E+02 0.30985210223E+02
 0.25479716828E+02 0.21749877135E+02 0.19430685338E+02 0.18117002182E+02 0.17444690802E+02
 0.17208821199E+02 0.17248400542E+02 0.17424805913E+02 0.17628431821E+02 0.17781349659E+02
 0.17837399931E+02 0.17781347623E+02 0.17628428516E+02 0.17424802847E+02 0.17248400158E+02
 0.17208826827E+02 0.17444707238E+02 0.18117034966E+02 0.19430748012E+02 0.21749993608E+02
 0.25479911506E+02 0.30985506389E+02 0.38554130686E+02 0.48366531433E+02 0.60480750519E+02
 0.74829603212E+02 0.91228583189E+02 0.10938871802E+03 0.12892925707E+03 0.14938769008E+03
 0.17022800985E+03 0.19085064426E+03 0.21060798602E+03 0.22882810676E+03 0.24484676089E+03
 0.25804529767E+03 0.26789038091E+03 0.27397080412E+03 0.26591470955E+03 0.26392552333E+03
 0.25804452199E+03 0.24852403335E+03 0.23576355525E+03 0.22028071968E+03 0.20267550562E+03
 0.18359199461E+03 0.16368212894E+03 0.14357517365E+03 0.12385486428E+03 0.10504391319E+03
 0.87593387069E+02 0.71873430243E+02 0.58162477330E+02 0.46634514935E+02 0.37347028472E+02
 0.30234481399E+02 0.25112240350E+02 0.21693494436E+02 0.19618113805E+02 0.18489350648E+02
 0.17966890994E+02 0.17858636285E+02 0.18004321754E+02 0.18265144903E+02 0.18530531271E+02
 0.18721242626E+02 0.18790030436E+02 0.18721240025E+02 0.18530526847E+02 0.18265140178E+02
 0.18004319172E+02 0.17858639129E+02 0.17966903949E+02 0.18489379121E+02 0.19618169455E+02
 0.21693600177E+02 0.25112420003E+02 0.30234757741E+02 0.37347420995E+02 0.46635038322E+02
 0.58163139870E+02 0.71874233030E+02 0.87594323396E+02 0.10504496854E+03 0.12385601640E+03
 0.14357639315E+03 0.16368337989E+03 0.18359323567E+03 0.20267669150E+03 0.22028180330E+03
 0.23576449030E+03 0.24852477737E+03 0.25804503950E+03 0.26392578877E+03 0.25235538789E+03
 0.25045719019E+03 0.24484578617E+03 0.23576355525E+03 0.22359387412E+03 0.20883297295E+03
 0.19205564065E+03 0.17387897520E+03 0.15492830376E+03 0.13580846602E+03 0.11708196087E+03
 0.99253406025E+02 0.82758004485E+02 0.67951027293E+02 0.55096206628E+02 0.44353120245E+02
 0.35766350310E+02 0.29260832447E+02 0.24647560402E+02 0.21641438658E+02 0.19889814694E+02
 0.19008874100E+02 0.18693305716E+02 0.18763563561E+02 0.19059752321E+02 0.19441889309E+02
 0.19796994849E+02 0.20043029433E+02 0.20130536183E+02 0.20043026036E+02 0.19796988851E+02
 0.19441882277E+02 0.19059746687E+02 0.18763562584E+02 0.18693313927E+02 0.19008896783E+02
 0.19889861290E+02 0.21641530392E+02 0.24647720321E+02 0.29261082593E+02 0.35766709784E+02
 0.44353603545E+02 0.55096822196E+02 0.67951776623E+02 0.82758881506E+02 0.99254397122E+02
 0.11708304493E+03 0.13580961499E+03 0.15492948337E+03 0.17388014606E+03 0.19205675972E+03
 0.20883399557E+03 0.22359475646E+03 0.23576425725E+03 0.24484627438E+03 0.25045744059E+03
 0.23589525235E+03 0.23410844972E+03 0.22882697726E+03 0.22028071968E+03 0.20883297295E+03
 0.19495358887E+03 0.17918662106E+03 0.16211650732E+03 0.14433648847E+03 0.12642188883E+03
 0.10890926402E+03 0.92280689921E+02 0.76951168538E+02 0.63256836122E+02 0.51442659536E+02
 0.41650296923E+02 0.33908892829E+02 0.28132714497E+02 0.24128841742E+02 0.21615880923E+02
 0.20251789674E+02 0.19672663803E+02 0.19617757157E+02 0.19916573994E+02 0.20408691328E+02
 0.20951176893E+02 0.21426339002E+02 0.21747038434E+02 0.21859918515E+02 0.21747034010E+02
 0.21426330978E+02 0.20951166903E+02 0.20408681823E+02 0.19916568254E+02 0.19617759488E+02
 0.19672679425E+02 0.20251825878E+02 0.21615956321E+02 0.24128978407E+02 0.28132933523E+02
 0.33909212803E+02 0.41650732087E+02 0.51443218512E+02 0.63257520863E+02 0.76951973841E+02
 0.92281603231E+02 0.10891026567E+03 0.12642295249E+03 0.14433758192E+03 0.16211759351E+03
 0.17918765967E+03 0.19495453813E+03 0.20883379201E+03 0.22028137128E+03 0.22882743040E+03
 0.23410868211E+03 0.21716829642E+03 0.21550942675E+03 0.21060674997E+03 0.20267550562E+03
 0.19205564065E+03 0.17918662106E+03 0.16457741206E+03 0.14877540542E+03 0.13233750273E+03
 0.11580540508E+03 0.99685658070E+02 0.84433655125E+02 0.70439958241E+02 0.58017382491E+02
 0.47388343195E+02 0.38673634848E+02 0.31885320831E+02 0.26926921047E+02 0.23603121701E+02
 0.21639072612E+02 0.20706988421E+02 0.20474512487E+02 0.20728888840E+02 0.21303799219E+02
 0.22036882236E+02 0.22779749581E+02 0.23406849748E+02 0.23822859492E+02 0.23968269833E+02
 0.23822853807E+02 0.23406839255E+02 0.22779736024E+02 0.22036868116E+02 0.21303787866E+02
 0.20728884349E+02 0.20474519992E+02 0.20707013656E+02 0.21639130451E+02 0.23603232972E+02
 0.26927105725E+02 0.31885596840E+02 0.38674016093E+02 0.47388838466E+02 0.58017994290E+02
 0.70440682331E+02 0.84434480270E+02 0.99686566304E+02 0.11580637205E+03 0.13233849863E+03
 0.14877639593E+03 0.16457835992E+03 0.17918748773E+03 0.19205638858E+03 0.20267610065E+03
 0.21060716375E+03 0.21550963895E+03 0.19685544943E+03 0.19533683409E+03 0.19084935057E+03
 0.18359199461E+03 0.17387897520E+03 0.16211650732E+03 0.14877540542E+03 0.13436291348E+03
 0.11939646103E+03 0.10438084461E+03 0.89789030808E+02 0.76045824776E+02 0.63513242756E+02
 0.52476823369E+02 0.43133128100E+02 0.35579956692E+02 0.29811702343E+02 0.25722216331E+02
 0.23116349540E+02 0.21729396445E+02 0.21251976297E+02 0.21402190385E+02 0.22006320193E+02
 0.22899227074E+02 0.23914858923E+02 0.24896364744E+02 0.25706603704E+02 0.26238430717E+02
 0.26423531010E+02 0.26238423555E+02 0.25706590339E+02 0.24896347057E+02 0.23914839542E+02
 0.22899209398E+02 0.22006308185E+02 0.21402188976E+02 0.21251990606E+02 0.21729436714E+02
 0.23116434756E+02 0.25722365280E+02 0.29811932066E+02 0.35580280712E+02 0.43133555306E+02
 0.52477356851E+02 0.63513879381E+02 0.76046554769E+02 0.89789838104E+02 0.10438170716E+03
 0.11939735167E+03 0.13436380091E+03 0.14877625563E+03 0.16211728528E+03 0.17387964688E+03
 0.18359252909E+03 0.19084972227E+03 0.19533702472E+03 0.17564525003E+03 0.17427500290E+03
 0.17022670547E+03 0.16368212894E+03 0.15492830376E+03 0.14433648847E+03 0.13233750273E+03
 0.11939646103E+03 0.10598907498E+03 0.92580550200E+02 0.79607045249E+02 0.67459073959E+02
 0.56466247998E+02 0.46883331637E+02 0.38878489232E+02 0.32525428726E+02 0.27801462718E+02
 0.24592970330E+02 0.22708403793E+02 0.21897318442E+02 0.21877143952E+02 0.22434114273E+02
 0.23415983545E+02 0.24658329813E+02 0.25989648882E+02 0.27241587562E+02 0.28261629869E+02
 0.28927100672E+02 0.29158165183E+02 0.28927091847E+02 0.28261613300E+02 0.27241565300E+02
 0.25989623754E+02 0.24658305296E+02 0.23415963612E+02 0.22434103495E+02 0.21877147277E+02
 0.21897342311E+02 0.22708463807E+02 0.24593084037E+02 0.27801646047E+02 0.32525694755E+02
 0.38878846834E+02 0.46883784553E+02 0.56466794161E+02 0.67459705292E+02 0.79607747694E+02
 0.92581304218E+02 0.10598985624E+03 0.11939724143E+03 0.13233825175E+03 0.14433717468E+03
 0.15492889667E+03 0.16368260097E+03 0.17022703384E+03 0.17427517133E+03 0.15420055763E+03
 0.15298292792E+03 0.14938641780E+03 0.14357517365E+03 0.13580846602E+03 0.12642188883E+03
 0.11580540508E+03 0.10438084461E+03 0.92580550200E+02 0.80827826073E+02 0.69519034307E+02
 0.59006962161E+02 0.49585414097E+02 0.41475629874E+02 0.34815868025E+02 0.29655851548E+02
 0.25957580214E+02 0.23603103317E+02 0.22408474599E+02 0.22141767574E+02 0.22567223850E+02
 0.23536346176E+02 0.24906034284E+02 0.26512527590E+02 0.28177567354E+02 0.29718896567E+02
 0.30965552900E+02 0.31776275495E+02 0.32057451192E+02 0.31776264860E+02 0.30965532869E+02
 0.29718869425E+02 0.28177536217E+02 0.26512496023E+02 0.24906006307E+02 0.23536326042E+02
 0.22567216290E+02 0.22141777163E+02 0.22408511742E+02 0.23603184020E+02 0.25957719181E+02
 0.29656061266E+02 0.34816157271E+02 0.41476002966E+02 0.49585870094E+02 0.59007494675E+02
 0.69519631439E+02 0.80828470910E+02 0.92581221384E+02 0.10438151736E+03 0.11580605239E+03
 0.12642248292E+03 0.13580897998E+03 0.14357558317E+03 0.14938670283E+03 0.15298307416E+03
 0.13313405080E+03 0.13206996986E+03 0.12892805405E+03 0.12385486428E+03 0.11708196087E+03
 0.10890926402E+03 0.99685658070E+02 0.89789030808E+02 0.79607045249E+02 0.69519034307E+02
 0.59878848143E+02 0.50998572396E+02 0.43133546382E+02 0.36469780756E+02 0.31115364476E+02
 0.27097393532E+02 0.24365353569E+02 0.22800732026E+02 0.22231319343E+02 0.22450490260E+02
 0.23297767220E+02 0.24661279321E+02 0.26405296106E+02 0.28367151231E+02 0.30361515329E+02
 0.32191237369E+02 0.33665459992E+02 0.34622799508E+02 0.34954688348E+02 0.34622787028E+02
 0.33665436437E+02 0.32191205304E+02 0.30361478153E+02 0.28367112773E+02 0.26405260337E+02
 0.24661250319E+02 0.23297749269E+02 0.22450487525E+02 0.22231337279E+02 0.22800783503E+02
 0.24365452168E+02 0.27097550858E+02 0.31115589187E+02 0.36470077599E+02 0.43133915515E+02
 0.50999009099E+02 0.59879342753E+02 0.69519572528E+02 0.79607608781E+02 0.89789598230E+02
 0.99686205904E+02 0.10890976809E+03 0.11708239775E+03 0.12385521281E+03 0.12892829682E+03
 0.13207009447E+03 0.11299261263E+03 0.11208026748E+03 0.10938761464E+03 0.10504391319E+03
 0.99253406025E+02 0.92280689921E+02 0.84433655125E+02 0.76045824776E+02 0.67459073959E+02
 0.59006962161E+02 0.50998572396E+02 0.43703055778E+02 0.37335678960E+02 0.32046796842E+02
 0.27915384540E+02 0.24948401763E+02 0.23086350894E+02 0.22214125692E+02 0.22175056738E+02
 0.22811947882E+02 0.24035605311E+02 0.25749397797E+02 0.27826180412E+02 0.30105510392E+02
 0.32396123576E+02 0.34487096686E+02 0.36168690357E+02 0.37260194746E+02 0.37638615053E+02
 0.37260180490E+02 0.36168663448E+02 0.34487060009E+02 0.32396080786E+02 0.30105465567E+02
 0.27826137572E+02 0.25749360836E+02 0.24035578019E+02 0.22811934117E+02 0.22175059896E+02
 0.22214153101E+02 0.23086414676E+02 0.24948512568E+02 0.27915550753E+02 0.32047023485E+02
 0.37335967247E+02 0.43703402519E+02 0.50998970124E+02 0.59007399216E+02 0.67459535071E+02
 0.76046291789E+02 0.84434108057E+02 0.92281108100E+02 0.99253769385E+02 0.10504420360E+03
 0.10938781717E+03 0.11208037152E+03 0.94247971900E+02 0.93483237790E+02 0.91227602542E+02
 0.87593387069E+02 0.82758004485E+02 0.76951168538E+02 0.70439958241E+02 0.63513242756E+02
 0.56466247998E+02 0.49585414097E+02 0.43133546382E+02 0.37335678960E+02 0.32366688827E+02
 0.28342205882E+02 0.25314359268E+02 0.23273309091E+02 0.22154429137E+02 0.21849739588E+02
 0.22228478235E+02 0.23211994534E+02 0.24742119942E+02 0.26734947114E+02 0.29073148872E+02
 0.31600445376E+02 0.34122488760E+02 0.36418227221E+02 0.38263322377E+02 0.39462834911E+02
 0.39879428975E+02 0.39462819010E+02 0.38263292522E+02 0.36418186600E+02 0.34122441270E+02
 0.31600395203E+02 0.29073100136E+02 0.26734903497E+02 0.24742084883E+02 0.23211971283E+02
 0.22228469846E+02 0.21849749068E+02 0.22154464824E+02 0.23273380775E+02 0.25314474757E+02
 0.28342370473E+02 0.32366904460E+02 0.37335944014E+02 0.43133855358E+02 0.49585757882E+02
 0.56466614236E+02 0.63513616522E+02 0.70440322869E+02 0.76951506716E+02 0.82758299317E+02
 0.87593623281E+02 0.91227767547E+02 0.93483322623E+02 0.77289329787E+02 0.76665968168E+02
 0.74828760415E+02 0.71873430243E+02 0.67951027293E+02 0.63256836122E+02 0.58017382491E+02
 0.52476823369E+02 0.46883331637E+02 0.41475629874E+02 0.36469780756E+02 0.32046796842E+02
 0.28342205882E+02 0.25439084093E+02 0.23365900030E+02 0.22099787719E+02 0.21574739774E+02
 0.21694659358E+02 0.22391017307E+02 0.23634168155E+02 0.25379160869E+02 0.27555229519E+02
 0.30056113995E+02 0.32732417977E+02 0.35391220597E+02 0.37807499564E+02 0.39751750939E+02
 0.41018812931E+02 0.41459446004E+02 0.41018795742E+02 0.39751718799E+02 0.37807456087E+02
 0.35391169747E+02 0.32732363985E+02 0.30056060947E+02 0.27555180961E+02 0.25379119877E+02
 0.23634137477E+02 0.22390999487E+02 0.21694656560E+02 0.21574754951E+02 0.22099828587E+02
 0.23365973889E+02 0.25439196183E+02 0.28342358860E+02 0.32046990287E+02 0.36470011068E+02
 0.41475890285E+02 0.46883612530E+02 0.52477112823E+02 0.58017667024E+02 0.63257101570E+02
 0.67951259747E+02 0.71873617086E+02 0.74828891221E+02 0.76666035506E+02 0.62414074846E+02
 0.61923740889E+02 0.60480052772E+02 0.58162477330E+02 0.55096206628E+02 0.51442659536E+02
 0.47388343195E+02 0.43133128100E+02 0.38878489232E+02 0.34815868025E+02 0.31115364476E+02
 0.27915384540E+02 0.25314359268E+02 0.23365900030E+02 0.22078481165E+02 0.21419975986E+02
 0.21326654613E+02 0.21744858923E+02 0.22663096904E+02 0.24064545594E+02 0.25916652210E+02
 0.28161829086E+02 0.30706167383E+02 0.33410469964E+02 0.36088994097E+02 0.38521005673E+02
 0.40480230133E+02 0.41758716682E+02 0.42203643120E+02 0.41758698866E+02 0.40480196877E+02
 0.38520960800E+02 0.36088941627E+02 0.33410414039E+02 0.30706111972E+02 0.28161777574E+02
 0.25916607341E+02 0.24064509732E+02 0.22663071997E+02 0.21744846812E+02 0.21326656649E+02
 0.21419994851E+02 0.22078523096E+02 0.23365970128E+02 0.25314460598E+02 0.27915517775E+02
 0.31115527604E+02 0.34816056376E+02 0.38878695715E+02 0.43133343576E+02 0.47388557103E+02
 0.51442860621E+02 0.55096383743E+02 0.58162620296E+02 0.60480153155E+02 0.61923792652E+02
 0.49815235603E+02 0.49447443930E+02 0.48365977930E+02 0.46634514935E+02 0.44353120245E+02
 0.41650296923E+02 0.38673634848E+02 0.35579956692E+02 0.32525428726E+02 0.29655851548E+02
 0.27097393532E+02 0.24948401763E+02 0.23273309091E+02 0.22099787719E+02 0.21419975986E+02
 0.21196035249E+02 0.21392337587E+02 0.22009194136E+02 0.23046556778E+02 0.24497094802E+02
 0.26340045002E+02 0.28530924389E+02 0.30989522733E+02 0.33590432165E+02 0.36161357747E+02
 0.38494054754E+02 0.40372926590E+02 0.41599146795E+02 0.42025946537E+02 0.41599129188E+02
 0.40372893694E+02 0.38494010288E+02 0.36161305618E+02 0.33590376377E+02 0.30989467091E+02
 0.28530872033E+02 0.26339998417E+02 0.24497055983E+02 0.23046527268E+02 0.22009175228E+02
 0.21392330437E+02 0.21196040584E+02 0.21419995776E+02 0.22099826544E+02 0.23273370289E+02
 0.24948486763E+02 0.27097501688E+02 0.29655980041E+02 0.32525572649E+02 0.35580109400E+02
 0.38673788410E+02 0.41650442738E+02 0.44353249663E+02 0.46634619989E+02 0.48366051973E+02
 0.49447482198E+02 0.39568023134E+02 0.39310256087E+02 0.38553713245E+02 0.37347028472E+02
 0.35766350310E+02 0.33908892829E+02 0.31885320831E+02 0.29811702343E+02 0.27801462718E+02
 0.25957580214E+02 0.24365353569E+02 0.23086350894E+02 0.22154429137E+02 0.21574739774E+02
 0.21326654613E+02 0.21392337587E+02 0.21779599609E+02 0.22496261362E+02 0.23548416846E+02
 0.24937907410E+02 0.26655368507E+02 0.28669557816E+02 0.30915397419E+02 0.33284739506E+02
 0.35624655212E+02 0.37747293129E+02 0.39454678208E+02 0.40567844024E+02 0.40955135043E+02
 0.40567827430E+02 0.39454647095E+02 0.37747250817E+02 0.35624605346E+02 0.33284685910E+02
 0.30915343630E+02 0.28669506701E+02 0.26655322285E+02 0.24937867784E+02 0.23548385008E+02
 0.22496238229E+02 0.21779585891E+02 0.21392333926E+02 0.21326661253E+02 0.21574757727E+02
 0.22154461443E+02 0.23086399626E+02 0.24365419110E+02 0.25957661231E+02 0.27801556223E+02
 0.29811803863E+02 0.31885424739E+02 0.33908992838E+02 0.35766439997E+02 0.37347101821E+02
 0.38553765212E+02 0.39310283023E+02 0.31620797962E+02 0.31458899862E+02 0.30985210223E+02
 0.30234481399E+02 0.29260832447E+02 0.28132714497E+02 0.26926921047E+02 0.25722216331E+02
 0.24592970330E+02 0.23603103317E+02 0.22800732026E+02 0.22214125692E+02 0.21849739588E+02
 0.21694659358E+02 0.21744858923E+02 0.22009194136E+02 0.22496261362E+02 0.23216617344E+02
 0.24182976164E+02 0.25406660967E+02 0.26889993672E+02 0.28615605548E+02 0.30535070520E+02
 0.32560467809E+02 0.34562983420E+02 0.36381871665E+02 0.37844685560E+02 0.38796559195E+02
 0.39127418661E+02 0.38796544204E+02 0.37844657276E+02 0.36381832862E+02 0.34562937477E+02
 0.32560418207E+02 0.30535020451E+02 0.28615557538E+02 0.26889949711E+02 0.25406622458E+02
 0.24182944041E+02 0.23216592208E+02 0.22496243623E+02 0.22009184093E+02 0.21744856853E+02
 0.21694665235E+02 0.21849753551E+02 0.22214149404E+02 0.22800766721E+02 0.23603148903E+02
 0.24593025325E+02 0.25722278064E+02 0.26926985862E+02 0.28132778107E+02 0.29260890338E+02
 0.30234529260E+02 0.30985244377E+02 0.31458917644E+02 0.25796391097E+02 0.25715270467E+02
 0.25479716828E+02 0.25112240350E+02 0.24647560402E+02 0.24128841742E+02 0.23603121701E+02
 0.23116349540E+02 0.22708403793E+02 0.22408474599E+02 0.22231319343E+02 0.22175056738E+02
 0.22228478235E+02 0.22391017307E+02 0.22663096904E+02 0.23046556778E+02 0.23548416846E+02
 0.24182976164E+02 0.24970852085E+02 0.25934195589E+02 0.27088307800E+02 0.28430999709E+02
 0.29932065592E+02 0.31525972198E+02 0.33111013460E+02 0.34557359561E+02 0.35724379268E+02
 0.36484600617E+02 0.36748715671E+02 0.36484587501E+02 0.35724354377E+02 0.34557325265E+02
 0.33110972686E+02 0.31525928007E+02 0.29932020710E+02 0.28430956353E+02 0.27088267685E+02
 0.25934159840E+02 0.24970821399E+02 0.24182950903E+02 0.23548397175E+02 0.23046542786E+02
 0.22663088633E+02 0.22391014848E+02 0.22228481503E+02 0.22175065489E+02 0.22231333956E+02
 0.22408495763E+02 0.22708431316E+02 0.23116382213E+02 0.23603157469E+02 0.24128877945E+02
 0.24647594111E+02 0.25112268683E+02 0.25479737276E+02 0.25715281181E+02 0.21807442511E+02
 0.21791971634E+02 0.21749877135E+02 0.21693494436E+02 0.21641438658E+02 0.21615880923E+02
 0.21639072612E+02 0.21729396445E+02 0.21897318442E+02 0.22141767574E+02 0.22450490260E+02
 0.22811947882E+02 0.23211994534E+02 0.23634168155E+02 0.24064545594E+02 0.24497094802E+02
 0.24937907410E+02 0.25406660967E+02 0.25934195589E+02 0.26556054678E+02 0.27302921402E+02
 0.28189779568E+02 0.29206177703E+02 0.30310148097E+02 0.31428076001E+02 0.32461961423E+02
 0.33303911744E+02 0.33855516011E+02 0.34047674107E+02 0.33855504900E+02 0.33303890611E+02
 0.32461932225E+02 0.31428041200E+02 0.30310110229E+02 0.29206139042E+02 0.28189742021E+02
 0.27302886349E+02 0.26556022988E+02 0.25934167727E+02 0.25406637076E+02 0.24937887477E+02
 0.24497078734E+02 0.24064533339E+02 0.23634159689E+02 0.23211989921E+02 0.22811947153E+02
 0.22450493220E+02 0.22141773981E+02 0.21897328314E+02 0.21729409633E+02 0.21639088334E+02
 0.21615897860E+02 0.21641455141E+02 0.21693508726E+02 0.21749887663E+02 0.21791977215E+02
 0.19285348324E+02 0.19321272907E+02 0.19430685338E+02 0.19618113805E+02 0.19889814694E+02
 0.20251789674E+02 0.20706988421E+02 0.21251976297E+02 0.21877143952E+02 0.22567223850E+02
 0.23297767220E+02 0.24035605311E+02 0.24742119942E+02 0.25379160869E+02 0.25916652210E+02
 0.26340045002E+02 0.26655368507E+02 0.26889993672E+02 0.27088307800E+02 0.27302921402E+02
 0.27583251952E+02 0.27963962844E+02 0.28455721064E+02 0.29040274616E+02 0.29671157478E+02
 0.30280446096E+02 0.30790835403E+02 0.31130920076E+02 0.31250332446E+02 0.31130911016E+02
 0.30790818155E+02 0.30280422232E+02 0.29671128968E+02 0.29040243501E+02 0.28455689239E+02
 0.27963931827E+02 0.27583222795E+02 0.27302894715E+02 0.27088283796E+02 0.26889972304E+02
 0.26655349567E+02 0.26340028285E+02 0.25916637562E+02 0.25379148300E+02 0.24742109548E+02
 0.24035597270E+02 0.23297761752E+02 0.22567220989E+02 0.21877143538E+02 0.21251978023E+02
 0.20706991890E+02 0.20251794424E+02 0.19889820023E+02 0.19618118852E+02 0.19430689266E+02
 0.19321275052E+02 0.17818506533E+02 0.17893176822E+02 0.18117002182E+02 0.18489350648E+02
 0.19008874100E+02 0.19672663803E+02 0.20474512487E+02 0.21402190385E+02 0.22434114273E+02
 0.23536346176E+02 0.24661279321E+02 0.25749397797E+02 0.26734947114E+02 0.27555229519E+02
 0.28161829086E+02 0.28530924389E+02 0.28669557816E+02 0.28615605548E+02 0.28430999709E+02
 0.28189779568E+02 0.27963962844E+02 0.27810555566E+02 0.27762349892E+02 0.27823991560E+02
 0.27973642719E+02 0.28169650018E+02 0.28360897290E+02 0.28498877312E+02 0.28549034699E+02
 0.28498870234E+02 0.28360883811E+02 0.28169631361E+02 0.27973620431E+02 0.27823967277E+02
 0.27762325090E+02 0.27810531392E+02 0.27963940043E+02 0.28189758460E+02 0.28430980271E+02
 0.28615587494E+02 0.28669540776E+02 0.28530908014E+02 0.28161813199E+02 0.27555214129E+02
 0.26734932460E+02 0.25749384255E+02 0.24661267284E+02 0.23536336023E+02 0.22434106251E+02
 0.21402184519E+02 0.20474508590E+02 0.19672661544E+02 0.19008873056E+02 0.18489350381E+02
 0.18117002275E+02 0.17893176955E+02 0.17025094683E+02 0.17130143715E+02 0.17444690802E+02
 0.17966890994E+02 0.18693305716E+02 0.19617757157E+02 0.20728888840E+02 0.22006320193E+02
 0.23415983545E+02 0.24906034284E+02 0.26405296106E+02 0.27826180412E+02 0.29073148872E+02
 0.30056113995E+02 0.30706167383E+02 0.30989522733E+02 0.30915397419E+02 0.30535070520E+02
 0.29932065592E+02 0.29206177703E+02 0.28455721064E+02 0.27762349892E+02 0.27181398697E+02
 0.26738750197E+02 0.26433599017E+02 0.26245526030E+02 0.26143958155E+02 0.26098092460E+02
 0.26085521869E+02 0.26098087199E+02 0.26143948153E+02 0.26245512237E+02 0.26433582635E+02
 0.26738732473E+02 0.27181380738E+02 0.27762332517E+02 0.28455704713E+02 0.29206162419E+02
 0.29932051073E+02 0.30535056265E+02 0.30915382848E+02 0.30989507379E+02 0.30706150994E+02
 0.30056096667E+02 0.29073130975E+02 0.27826162530E+02 0.26405278934E+02 0.24906018455E+02
 0.23415969551E+02 0.22006308345E+02 0.20728879258E+02 0.19617749766E+02 0.18693300305E+02
 0.17966887283E+02 0.17444688513E+02 0.17130142630E+02 0.16687160972E+02 0.16817721326E+02
 0.17208821199E+02 0.17858636285E+02 0.18763563561E+02 0.19916573994E+02 0.21303799219E+02
 0.22899227074E+02 0.24658329813E+02 0.26512527590E+02 0.28367151231E+02 0.30105510392E+02
 0.31600445376E+02 0.32732417977E+02 0.33410469964E+02 0.33590432165E+02 0.33284739506E+02
 0.32560467809E+02 0.31525972198E+02 0.30310148097E+02 0.29040274616E+02 0.27823991560E+02
 0.26738750197E+02 0.25829321961E+02 0.25111810654E+02 0.24581616994E+02 0.24222815177E+02
 0.24016964429E+02 0.23950067466E+02 0.24016960775E+02 0.24222808272E+02 0.24581607563E+02
 0.25111799608E+02 0.25829310242E+02 0.26738738606E+02 0.27823980615E+02 0.29040264478E+02
 0.30310138530E+02 0.31525962663E+02 0.32560457536E+02 0.33284727700E+02 0.33590418192E+02
 0.33410453548E+02 0.32732399248E+02 0.31600424892E+02 0.30105489003E+02 0.28367129872E+02
 0.26512507168E+02 0.24658311102E+02 0.22899210606E+02 0.21303785277E+02 0.19916562676E+02
 0.18763554804E+02 0.17858629946E+02 0.17208817101E+02 0.16817719321E+02 0.16642830037E+02
 0.16794282329E+02 0.17248400542E+02 0.18004321754E+02 0.19059752321E+02 0.20408691328E+02
 0.22036882236E+02 0.23914858923E+02 0.25989648882E+02 0.28177567354E+02 0.30361515329E+02
 0.32396123576E+02 0.34122488760E+02 0.35391220597E+02 0.36088994097E+02 0.36161357747E+02
 0.35624655212E+02 0.34562983420E+02 0.33111013460E+02 0.31428076001E+02 0.29671157478E+02
 0.27973642719E+02 0.26433599017E+02 0.25111810654E+02 0.24037140838E+02 0.23215754215E+02
 0.22641054321E+02 0.22302226745E+02 0.22190398465E+02 0.22302224447E+02 0.22641050035E+02
 0.23215748501E+02 0.24037134392E+02 0.25111804175E+02 0.26433593045E+02 0.27973637541E+02
 0.29671152989E+02 0.31428071756E+02 0.33111008646E+02 0.34562977003E+02 0.35624646165E+02
 0.36161345290E+02 0.36088977876E+02 0.35391200834E+02 0.34122466177E+02 0.32396099250E+02
 0.30361490516E+02 0.28177543224E+02 0.25989626378E+02 0.23914838775E+02 0.22036864905E+02
 0.20408677026E+02 0.19059741071E+02 0.18004313480E+02 0.17248395125E+02 0.16794279653E+02
 0.16753196555E+02 0.16921028608E+02 0.17424805913E+02 0.18265144903E+02 0.19441889309E+02
 0.20951176893E+02 0.22779749581E+02 0.24896364744E+02 0.27241587562E+02 0.29718896567E+02
 0.32191237369E+02 0.34487096686E+02 0.36418227221E+02 0.37807499564E+02 0.38521005673E+02
 0.38494054754E+02 0.37747293129E+02 0.36381871665E+02 0.34557359561E+02 0.32461961423E+02
 0.30280446096E+02 0.28169650018E+02 0.26245526030E+02 0.24581616994E+02 0.23215754215E+02
 0.22160692928E+02 0.21414982120E+02 0.20971790186E+02 0.20824865742E+02 0.20971788968E+02
 0.21414979928E+02 0.22160690202E+02 0.23215751493E+02 0.24581614792E+02 0.26245524714E+02
 0.28169649660E+02 0.30280446419E+02 0.32461961771E+02 0.34557358875E+02 0.36381868683E+02
 0.37747286610E+02 0.38494043733E+02 0.38520989728E+02 0.37807478974E+02 0.36418202918E+02
 0.34487069998E+02 0.32191209745E+02 0.29718869439E+02 0.27241562097E+02 0.24896341780E+02
 0.22779729684E+02 0.20951160337E+02 0.19441876194E+02 0.18265135198E+02 0.17424799526E+02
 0.16921025443E+02 0.16908949226E+02 0.17088616649E+02 0.17628431821E+02 0.18530531271E+02
 0.19796994849E+02 0.21426339002E+02 0.23406849748E+02 0.25706603704E+02 0.28261629869E+02
 0.30965552900E+02 0.33665459992E+02 0.36168690357E+02 0.38263322377E+02 0.39751750939E+02
 0.40480230133E+02 0.40372926590E+02 0.39454678208E+02 0.37844685560E+02 0.35724379268E+02
 0.33303911744E+02 0.30790835403E+02 0.28360897290E+02 0.26143958155E+02 0.24222815177E+02
 0.22641054321E+02 0.21414982120E+02 0.20545478272E+02 0.20027328176E+02 0.19855299379E+02
 0.20027327740E+02 0.20545477603E+02 0.21414981576E+02 0.22641054341E+02 0.24222816152E+02
 0.26143960319E+02 0.28360900580E+02 0.30790839416E+02 0.33303915642E+02 0.35724381817E+02
 0.37844685330E+02 0.39454673797E+02 0.40372916800E+02 0.40480214399E+02 0.39751729660E+02
 0.38263296720E+02 0.36168661842E+02 0.33665430277E+02 0.30965523561E+02 0.28261602220E+02
 0.25706578684E+02 0.23406828005E+02 0.21426320868E+02 0.19796980449E+02 0.18530520588E+02
 0.17628424773E+02 0.17088613151E+02 0.17032763675E+02 0.17219609117E+02 0.17781349659E+02
 0.18721242626E+02 0.20043029433E+02 0.21747038434E+02 0.23822859492E+02 0.26238430717E+02
 0.28927100672E+02 0.31776275495E+02 0.34622799508E+02 0.37260194746E+02 0.39462834911E+02
 0.41018812931E+02 0.41758716682E+02 0.41599146795E+02 0.40567844024E+02 0.38796559195E+02
 0.36484600617E+02 0.33855516011E+02 0.31130920076E+02 0.28498877312E+02 0.26098092460E+02
 0.24016964429E+02 0.22302226745E+02 0.20971790186E+02 0.20027328176E+02 0.19464048327E+02
 0.19276950383E+02 0.19464048366E+02 0.20027328433E+02 0.20971790978E+02 0.22302228441E+02
 0.24016967359E+02 0.26098096781E+02 0.28498882880E+02 0.31130926411E+02 0.33855522159E+02
 0.36484605244E+02 0.38796560803E+02 0.40567841050E+02 0.41599137826E+02 0.41758701089E+02
 0.41018791148E+02 0.39462808312E+02 0.37260165082E+02 0.34622768465E+02 0.31776244766E+02
 0.28927071685E+02 0.26238404468E+02 0.23822836642E+02 0.21747019349E+02 0.20043014255E+02
 0.18721231354E+02 0.17781342215E+02 0.17219605422E+02 0.17079038702E+02 0.17268292116E+02
 0.17837399931E+02 0.18790030436E+02 0.20130536183E+02 0.21859918515E+02 0.23968269833E+02
 0.26423531010E+02 0.29158165183E+02 0.32057451192E+02 0.34954688348E+02 0.37638615053E+02
 0.39879428975E+02 0.41459446004E+02 0.42203643120E+02 0.42025946537E+02 0.40955135043E+02
 0.39127418661E+02 0.36748715671E+02 0.34047674107E+02 0.31250332446E+02 0.28549034699E+02
 0.26085521869E+02 0.23950067466E+02 0.22190398465E+02 0.20824865742E+02 0.19855299379E+02