  22  22   1   0
  0.1671580E+01  0.2963800E-09  0.2963800E-09  0.4186510E-09  0.5000000E-15
   1.0000000000000000E-004
  CAR 
 unknown system                          
     15.27210000     14.27210000 1000     14.77099526      1.00000000
     14.272  0.4051E+05  0.4055E+02
     14.273  0.1047E+01  0.4055E+02
     14.274  0.1048E+01  0.4055E+02
     14.275  0.1050E+01  0.4055E+02
     14.276  0.1051E+01  0.4055E+02
     14.277  0.1053E+01  0.4055E+02
     14.278  0.1054E+01  0.4055E+02
     14.279  0.1056E+01  0.4055E+02
     14.280  0.1058E+01  0.4055E+02
     14.281  0.1059E+01  0.4056E+02
     14.282  0.1061E+01  0.4056E+02
     14.283  0.1063E+01  0.4056E+02
     14.284  0.1065E+01  0.4056E+02
     14.285  0.1066E+01  0.4056E+02
     14.286  0.1068E+01  0.4056E+02
     14.287  0.1070E+01  0.4056E+02
     14.288  0.1071E+01  0.4056E+02
     14.289  0.1073E+01  0.4056E+02
     14.290  0.1075E+01  0.4057E+02
     14.291  0.1077E+01  0.4057E+02
     14.292  0.1078E+01  0.4057E+02
     14.293  0.1080E+01  0.4057E+02
     14.294  0.1082E+01  0.4057E+02
     14.295  0.1084E+01  0.4057E+02
     14.296  0.1085E+01  0.4057E+02
     14.297  0.1087E+01  0.4057E+02
     14.298  0.1089E+01  0.4057E+02
     14.299  0.1091E+01  0.4058E+02
     14.300  0.1092E+01  0.4058E+02
     14.301  0.1094E+01  0.4058E+02
     14.302  0.1096E+01  0.4058E+02
     14.303  0.1097E+01  0.4058E+02
     14.304  0.1099E+01  0.4058E+02
     14.305  0.1101E+01  0.4058E+02
     14.306  0.1102E+01  0.4058E+02
     14.307  0.1104E+01  0.4058E+02
     14.308  0.1106E+01  0.4059E+02
     14.309  0.1107E+01  0.4059E+02
     14.310  0.1109E+01  0.4059E+02
     14.311  0.1110E+01  0.4059E+02
     14.312  0.1112E+01  0.4059E+02
     14.313  0.1113E+01  0.4059E+02
     14.314  0.1115E+01  0.4059E+02
     14.315  0.1116E+01  0.4059E+02
     14.316  0.1118E+01  0.4059E+02
     14.317  0.1119E+01  0.4060E+02
     14.318  0.1121E+01  0.4060E+02
     14.319  0.1122E+01  0.4060E+02
     14.320  0.1123E+01  0.4060E+02
     14.321  0.1125E+01  0.4060E+02
     14.322  0.1126E+01  0.4060E+02
     14.323  0.1127E+01  0.4060E+02
     14.324  0.1128E+01  0.4060E+02
     14.325  0.1130E+01  0.4060E+02
     14.326  0.1131E+01  0.4061E+02
     14.327  0.1132E+01  0.4061E+02
     14.328  0.1133E+01  0.4061E+02
     14.329  0.1134E+01  0.4061E+02
     14.330  0.1135E+01  0.4061E+02
     14.331  0.1136E+01  0.4061E+02
     14.332  0.1137E+01  0.4061E+02
     14.333  0.1138E+01  0.4061E+02
     14.334  0.1139E+01  0.4061E+02
     14.335  0.1140E+01  0.4062E+02
     14.336  0.1141E+01  0.4062E+02
     14.337  0.1142E+01  0.4062E+02
     14.338  0.1143E+01  0.4062E+02
     14.339  0.1143E+01  0.4062E+02
     14.340  0.1144E+01  0.4062E+02
     14.341  0.1145E+01  0.4062E+02
     14.342  0.1145E+01  0.4062E+02
     14.343  0.1146E+01  0.4062E+02
     14.344  0.1147E+01  0.4063E+02
     14.345  0.1147E+01  0.4063E+02
     14.346  0.1148E+01  0.4063E+02
     14.347  0.1148E+01  0.4063E+02
     14.348  0.1149E+01  0.4063E+02
     14.349  0.1149E+01  0.4063E+02
     14.350  0.1150E+01  0.4063E+02
     14.351  0.1150E+01  0.4063E+02
     14.352  0.1150E+01  0.4064E+02
     14.353  0.1151E+01  0.4064E+02
     14.354  0.1151E+01  0.4064E+02
     14.355  0.1151E+01  0.4064E+02
     14.356  0.1151E+01  0.4064E+02
     14.357  0.1151E+01  0.4064E+02
     14.358  0.1151E+01  0.4064E+02
     14.359  0.1152E+01  0.4064E+02
     14.360  0.1152E+01  0.4064E+02
     14.361  0.1152E+01  0.4065E+02
     14.362  0.1152E+01  0.4065E+02
     14.363  0.1151E+01  0.4065E+02
     14.364  0.1151E+01  0.4065E+02
     14.365  0.1151E+01  0.4065E+02
     14.366  0.1151E+01  0.4065E+02
     14.367  0.1151E+01  0.4065E+02
     14.368  0.1151E+01  0.4065E+02
     14.369  0.1150E+01  0.4065E+02
     14.370  0.1150E+01  0.4066E+02
     14.371  0.1150E+01  0.4066E+02
     14.372  0.1149E+01  0.4066E+02
     14.373  0.1149E+01  0.4066E+02
     14.374  0.1148E+01  0.4066E+02
     14.375  0.1148E+01  0.4066E+02
     14.376  0.1147E+01  0.4066E+02
     14.377  0.1147E+01  0.4066E+02
     14.378  0.1146E+01  0.4067E+02
     14.379  0.1145E+01  0.4067E+02
     14.380  0.1145E+01  0.4067E+02
     14.381  0.1144E+01  0.4067E+02
     14.382  0.1143E+01  0.4067E+02
     14.383  0.1142E+01  0.4067E+02
     14.384  0.1141E+01  0.4067E+02
     14.385  0.1140E+01  0.4067E+02
     14.386  0.1139E+01  0.4067E+02
     14.387  0.1138E+01  0.4068E+02
     14.388  0.1137E+01  0.4068E+02
     14.389  0.1136E+01  0.4068E+02
     14.390  0.1135E+01  0.4068E+02
     14.391  0.1134E+01  0.4068E+02
     14.392  0.1133E+01  0.4068E+02
     14.393  0.1131E+01  0.4068E+02
     14.394  0.1130E+01  0.4068E+02
     14.395  0.1129E+01  0.4068E+02
     14.396  0.1127E+01  0.4069E+02
     14.397  0.1126E+01  0.4069E+02
     14.398  0.1124E+01  0.4069E+02
     14.399  0.1123E+01  0.4069E+02
     14.400  0.1121E+01  0.4069E+02
     14.401  0.1119E+01  0.4069E+02
     14.402  0.1118E+01  0.4069E+02
     14.403  0.1116E+01  0.4069E+02
     14.404  0.1114E+01  0.4069E+02
     14.405  0.1112E+01  0.4070E+02
     14.406  0.1110E+01  0.4070E+02
     14.407  0.1108E+01  0.4070E+02
     14.408  0.1106E+01  0.4070E+02
     14.409  0.1104E+01  0.4070E+02
     14.410  0.1102E+01  0.4070E+02
     14.411  0.1100E+01  0.4070E+02
     14.412  0.1098E+01  0.4070E+02
     14.413  0.1096E+01  0.4070E+02
     14.414  0.1093E+01  0.4071E+02
     14.415  0.1091E+01  0.4071E+02
     14.416  0.1088E+01  0.4071E+02
     14.417  0.1086E+01  0.4071E+02
     14.418  0.1083E+01  0.4071E+02
     14.419  0.1081E+01  0.4071E+02
     14.420  0.1078E+01  0.4071E+02
     14.421  0.1075E+01  0.4071E+02
     14.422  0.1073E+01  0.4071E+02
     14.423  0.1070E+01  0.4072E+02
     14.424  0.1067E+01  0.4072E+02
     14.425  0.1064E+01  0.4072E+02
     14.426  0.1061E+01  0.4072E+02
     14.427  0.1058E+01  0.4072E+02
     14.428  0.1055E+01  0.4072E+02
     14.429  0.1052E+01  0.4072E+02
     14.430  0.1049E+01  0.4072E+02
     14.431  0.1045E+01  0.4072E+02
     14.432  0.1042E+01  0.4072E+02
     14.433  0.1039E+01  0.4073E+02
     14.434  0.1035E+01  0.4073E+02
     14.435  0.1032E+01  0.4073E+02
     14.436  0.1028E+01  0.4073E+02
     14.437  0.1025E+01  0.4073E+02
     14.438  0.1021E+01  0.4073E+02
     14.439  0.1018E+01  0.4073E+02
     14.440  0.1014E+01  0.4073E+02
     14.441  0.1010E+01  0.4073E+02
     14.442  0.1006E+01  0.4074E+02
     14.443  0.1003E+01  0.4074E+02
     14.444  0.9987E+00  0.4074E+02
     14.445  0.9948E+00  0.4074E+02
     14.446  0.9909E+00  0.4074E+02
     14.447  0.9869E+00  0.4074E+02
     14.448  0.9829E+00  0.4074E+02
     14.449  0.9788E+00  0.4074E+02
     14.450  0.9747E+00  0.4074E+02
     14.451  0.9706E+00  0.4074E+02
     14.452  0.9665E+00  0.4074E+02
     14.453  0.9623E+00  0.4075E+02
     14.454  0.9581E+00  0.4075E+02
     14.455  0.9538E+00  0.4075E+02
     14.456  0.9495E+00  0.4075E+02
     14.457  0.9452E+00  0.4075E+02
     14.458  0.9409E+00  0.4075E+02
     14.459  0.9366E+00  0.4075E+02
     14.460  0.9322E+00  0.4075E+02
     14.461  0.9278E+00  0.4075E+02
     14.462  0.9235E+00  0.4075E+02
     14.463  0.9190E+00  0.4076E+02
     14.464  0.9146E+00  0.4076E+02
     14.465  0.9102E+00  0.4076E+02
     14.466  0.9058E+00  0.4076E+02
     14.467  0.9013E+00  0.4076E+02
     14.468  0.8969E+00  0.4076E+02
     14.469  0.8924E+00  0.4076E+02
     14.470  0.8880E+00  0.4076E+02
     14.471  0.8835E+00  0.4076E+02
     14.472  0.8791E+00  0.4076E+02
     14.473  0.8746E+00  0.4076E+02
     14.474  0.8702E+00  0.4077E+02
     14.475  0.8658E+00  0.4077E+02
     14.476  0.8614E+00  0.4077E+02
     14.477  0.8570E+00  0.4077E+02
     14.478  0.8526E+00  0.4077E+02
     14.479  0.8483E+00  0.4077E+02
     14.480  0.8440E+00  0.4077E+02
     14.481  0.8396E+00  0.4077E+02
     14.482  0.8354E+00  0.4077E+02
     14.483  0.8311E+00  0.4077E+02
     14.484  0.8269E+00  0.4077E+02
     14.485  0.8227E+00  0.4077E+02
     14.486  0.8186E+00  0.4078E+02
     14.487  0.8144E+00  0.4078E+02
     14.488  0.8104E+00  0.4078E+02
     14.489  0.8063E+00  0.4078E+02
     14.490  0.8023E+00  0.4078E+02
     14.491  0.7984E+00  0.4078E+02
     14.492  0.7945E+00  0.4078E+02
     14.493  0.7906E+00  0.4078E+02
     14.494  0.7868E+00  0.4078E+02
     14.495  0.7831E+00  0.4078E+02
     14.496  0.7794E+00  0.4078E+02
     14.497  0.7758E+00  0.4078E+02
     14.498  0.7722E+00  0.4078E+02
     14.499  0.7687E+00  0.4079E+02
     14.500  0.7653E+00  0.4079E+02
     14.501  0.7619E+00  0.4079E+02
     14.502  0.7586E+00  0.4079E+02
     14.503  0.7553E+00  0.4079E+02
     14.504  0.7521E+00  0.4079E+02
     14.505  0.7490E+00  0.4079E+02
     14.506  0.7460E+00  0.4079E+02
     14.507  0.7430E+00  0.4079E+02
     14.508  0.7401E+00  0.4079E+02
     14.509  0.7373E+00  0.4079E+02
     14.510  0.7346E+00  0.4079E+02
     14.511  0.7319E+00  0.4079E+02
     14.512  0.7294E+00  0.4080E+02
     14.513  0.7269E+00  0.4080E+02
     14.514  0.7245E+00  0.4080E+02
     14.515  0.7221E+00  0.4080E+02
     14.516  0.7199E+00  0.4080E+02
     14.517  0.7177E+00  0.4080E+02
     14.518  0.7157E+00  0.4080E+02
     14.519  0.7137E+00  0.4080E+02
     14.520  0.7118E+00  0.4080E+02
     14.521  0.7100E+00  0.4080E+02
     14.522  0.7083E+00  0.4080E+02
     14.523  0.7066E+00  0.4080E+02
     14.524  0.7051E+00  0.4080E+02
     14.525  0.7036E+00  0.4080E+02
     14.526  0.7022E+00  0.4081E+02
     14.527  0.7010E+00  0.4081E+02
     14.528  0.6998E+00  0.4081E+02
     14.529  0.6987E+00  0.4081E+02
     14.530  0.6977E+00  0.4081E+02
     14.531  0.6967E+00  0.4081E+02
     14.532  0.6959E+00  0.4081E+02
     14.533  0.6951E+00  0.4081E+02
     14.534  0.6945E+00  0.4081E+02
     14.535  0.6939E+00  0.4081E+02
     14.536  0.6934E+00  0.4081E+02
     14.537  0.6930E+00  0.4081E+02
     14.538  0.6927E+00  0.4081E+02
     14.539  0.6925E+00  0.4081E+02
     14.540  0.6923E+00  0.4082E+02
     14.541  0.6923E+00  0.4082E+02
     14.542  0.6923E+00  0.4082E+02
     14.543  0.6924E+00  0.4082E+02
     14.544  0.6926E+00  0.4082E+02
     14.545  0.6929E+00  0.4082E+02
     14.546  0.6932E+00  0.4082E+02
     14.547  0.6936E+00  0.4082E+02
     14.548  0.6941E+00  0.4082E+02
     14.549  0.6947E+00  0.4082E+02
     14.550  0.6953E+00  0.4082E+02
     14.551  0.6961E+00  0.4082E+02
     14.552  0.6968E+00  0.4082E+02
     14.553  0.6977E+00  0.4082E+02
     14.554  0.6986E+00  0.4082E+02
     14.555  0.6996E+00  0.4083E+02
     14.556  0.7007E+00  0.4083E+02
     14.557  0.7018E+00  0.4083E+02
     14.558  0.7030E+00  0.4083E+02
     14.559  0.7042E+00  0.4083E+02
     14.560  0.7055E+00  0.4083E+02
     14.561  0.7068E+00  0.4083E+02
     14.562  0.7083E+00  0.4083E+02
     14.563  0.7097E+00  0.4083E+02
     14.564  0.7112E+00  0.4083E+02
     14.565  0.7128E+00  0.4083E+02
     14.566  0.7144E+00  0.4083E+02
     14.567  0.7160E+00  0.4083E+02
     14.568  0.7177E+00  0.4083E+02
     14.569  0.7195E+00  0.4084E+02
     14.570  0.7213E+00  0.4084E+02
     14.571  0.7231E+00  0.4084E+02
     14.572  0.7249E+00  0.4084E+02
     14.573  0.7268E+00  0.4084E+02
     14.574  0.7287E+00  0.4084E+02
     14.575  0.7307E+00  0.4084E+02
     14.576  0.7326E+00  0.4084E+02
     14.577  0.7346E+00  0.4084E+02
     14.578  0.7367E+00  0.4084E+02
     14.579  0.7387E+00  0.4084E+02
     14.580  0.7408E+00  0.4084E+02
     14.581  0.7429E+00  0.4084E+02
     14.582  0.7450E+00  0.4084E+02
     14.583  0.7471E+00  0.4085E+02
     14.584  0.7492E+00  0.4085E+02
     14.585  0.7513E+00  0.4085E+02
     14.586  0.7535E+00  0.4085E+02
     14.587  0.7557E+00  0.4085E+02
     14.588  0.7578E+00  0.4085E+02
     14.589  0.7600E+00  0.4085E+02
     14.590  0.7622E+00  0.4085E+02
     14.591  0.7643E+00  0.4085E+02
     14.592  0.7665E+00  0.4085E+02
     14.593  0.7687E+00  0.4085E+02
     14.594  0.7708E+00  0.4085E+02
     14.595  0.7730E+00  0.4085E+02
     14.596  0.7751E+00  0.4086E+02
     14.597  0.7772E+00  0.4086E+02
     14.598  0.7794E+00  0.4086E+02
     14.599  0.7815E+00  0.4086E+02
     14.600  0.7836E+00  0.4086E+02
     14.601  0.7857E+00  0.4086E+02
     14.602  0.7877E+00  0.4086E+02
     14.603  0.7898E+00  0.4086E+02
     14.604  0.7918E+00  0.4086E+02
     14.605  0.7938E+00  0.4086E+02
     14.606  0.7958E+00  0.4086E+02
     14.607  0.7978E+00  0.4086E+02
     14.608  0.7997E+00  0.4087E+02
     14.609  0.8017E+00  0.4087E+02
     14.610  0.8035E+00  0.4087E+02
     14.611  0.8054E+00  0.4087E+02
     14.612  0.8073E+00  0.4087E+02
     14.613  0.8091E+00  0.4087E+02
     14.614  0.8108E+00  0.4087E+02
     14.615  0.8126E+00  0.4087E+02
     14.616  0.8143E+00  0.4087E+02
     14.617  0.8160E+00  0.4087E+02
     14.618  0.8177E+00  0.4087E+02
     14.619  0.8193E+00  0.4087E+02
     14.620  0.8209E+00  0.4087E+02
     14.621  0.8224E+00  0.4088E+02
     14.622  0.8239E+00  0.4088E+02
     14.623  0.8254E+00  0.4088E+02
     14.624  0.8269E+00  0.4088E+02
     14.625  0.8283E+00  0.4088E+02
     14.626  0.8297E+00  0.4088E+02
     14.627  0.8310E+00  0.4088E+02
     14.628  0.8323E+00  0.4088E+02
     14.629  0.8336E+00  0.4088E+02
     14.630  0.8348E+00  0.4088E+02
     14.631  0.8360E+00  0.4088E+02
     14.632  0.8371E+00  0.4088E+02
     14.633  0.8382E+00  0.4089E+02
     14.634  0.8393E+00  0.4089E+02
     14.635  0.8404E+00  0.4089E+02
     14.636  0.8414E+00  0.4089E+02
     14.637  0.8423E+00  0.4089E+02
     14.638  0.8432E+00  0.4089E+02
     14.639  0.8441E+00  0.4089E+02
     14.640  0.8450E+00  0.4089E+02
     14.641  0.8458E+00  0.4089E+02
     14.642  0.8465E+00  0.4089E+02
     14.643  0.8473E+00  0.4089E+02
     14.644  0.8480E+00  0.4089E+02
     14.645  0.8486E+00  0.4090E+02
     14.646  0.8492E+00  0.4090E+02
     14.647  0.8498E+00  0.4090E+02
     14.648  0.8504E+00  0.4090E+02
     14.649  0.8509E+00  0.4090E+02
     14.650  0.8513E+00  0.4090E+02
     14.651  0.8518E+00  0.4090E+02
     14.652  0.8522E+00  0.4090E+02
     14.653  0.8526E+00  0.4090E+02
     14.654  0.8529E+00  0.4090E+02
     14.655  0.8532E+00  0.4090E+02
     14.656  0.8535E+00  0.4091E+02
     14.657  0.8537E+00  0.4091E+02
     14.658  0.8539E+00  0.4091E+02
     14.659  0.8541E+00  0.4091E+02
     14.660  0.8542E+00  0.4091E+02
     14.661  0.8543E+00  0.4091E+02
     14.662  0.8544E+00  0.4091E+02
     14.663  0.8544E+00  0.4091E+02
     14.664  0.8545E+00  0.4091E+02
     14.665  0.8544E+00  0.4091E+02
     14.666  0.8544E+00  0.4091E+02
     14.667  0.8543E+00  0.4091E+02
     14.668  0.8542E+00  0.4092E+02
     14.669  0.8541E+00  0.4092E+02
     14.670  0.8540E+00  0.4092E+02
     14.671  0.8538E+00  0.4092E+02
     14.673  0.8536E+00  0.4092E+02
     14.674  0.8534E+00  0.4092E+02
     14.675  0.8531E+00  0.4092E+02
     14.676  0.8528E+00  0.4092E+02
     14.677  0.8526E+00  0.4092E+02
     14.678  0.8522E+00  0.4092E+02
     14.679  0.8519E+00  0.4092E+02
     14.680  0.8515E+00  0.4092E+02
     14.681  0.8512E+00  0.4093E+02
     14.682  0.8507E+00  0.4093E+02
     14.683  0.8503E+00  0.4093E+02
     14.684  0.8499E+00  0.4093E+02
     14.685  0.8494E+00  0.4093E+02
     14.686  0.8489E+00  0.4093E+02
     14.687  0.8484E+00  0.4093E+02
     14.688  0.8479E+00  0.4093E+02
     14.689  0.8474E+00  0.4093E+02
     14.690  0.8469E+00  0.4093E+02
     14.691  0.8463E+00  0.4093E+02
     14.692  0.8457E+00  0.4094E+02
     14.693  0.8451E+00  0.4094E+02
     14.694  0.8445E+00  0.4094E+02
     14.695  0.8439E+00  0.4094E+02
     14.696  0.8433E+00  0.4094E+02
     14.697  0.8426E+00  0.4094E+02
     14.698  0.8420E+00  0.4094E+02
     14.699  0.8413E+00  0.4094E+02
     14.700  0.8406E+00  0.4094E+02
     14.701  0.8399E+00  0.4094E+02
     14.702  0.8392E+00  0.4094E+02
     14.703  0.8385E+00  0.4094E+02
     14.704  0.8378E+00  0.4095E+02
     14.705  0.8371E+00  0.4095E+02
     14.706  0.8364E+00  0.4095E+02
     14.707  0.8356E+00  0.4095E+02
     14.708  0.8349E+00  0.4095E+02
     14.709  0.8341E+00  0.4095E+02
     14.710  0.8334E+00  0.4095E+02
     14.711  0.8326E+00  0.4095E+02
     14.712  0.8318E+00  0.4095E+02
     14.713  0.8311E+00  0.4095E+02
     14.714  0.8303E+00  0.4095E+02
     14.715  0.8295E+00  0.4095E+02
     14.716  0.8287E+00  0.4096E+02
     14.717  0.8279E+00  0.4096E+02
     14.718  0.8271E+00  0.4096E+02
     14.719  0.8263E+00  0.4096E+02
     14.720  0.8256E+00  0.4096E+02
     14.721  0.8248E+00  0.4096E+02
     14.722  0.8240E+00  0.4096E+02
     14.723  0.8232E+00  0.4096E+02
     14.724  0.8224E+00  0.4096E+02
     14.725  0.8216E+00  0.4096E+02
     14.726  0.8208E+00  0.4096E+02
     14.727  0.8200E+00  0.4096E+02
     14.728  0.8192E+00  0.4097E+02
     14.729  0.8185E+00  0.4097E+02
     14.730  0.8177E+00  0.4097E+02
     14.731  0.8169E+00  0.4097E+02
     14.732  0.8162E+00  0.4097E+02
     14.733  0.8154E+00  0.4097E+02
     14.734  0.8146E+00  0.4097E+02
     14.735  0.8139E+00  0.4097E+02
     14.736  0.8132E+00  0.4097E+02
     14.737  0.8124E+00  0.4097E+02
     14.738  0.8117E+00  0.4097E+02
     14.739  0.8110E+00  0.4097E+02
     14.740  0.8103E+00  0.4097E+02
     14.741  0.8096E+00  0.4098E+02
     14.742  0.8089E+00  0.4098E+02
     14.743  0.8082E+00  0.4098E+02
     14.744  0.8076E+00  0.4098E+02
     14.745  0.8069E+00  0.4098E+02
     14.746  0.8063E+00  0.4098E+02
     14.747  0.8056E+00  0.4098E+02
     14.748  0.8050E+00  0.4098E+02
     14.749  0.8044E+00  0.4098E+02
     14.750  0.8039E+00  0.4098E+02
     14.751  0.8033E+00  0.4098E+02
     14.752  0.8027E+00  0.4098E+02
     14.753  0.8022E+00  0.4099E+02
     14.754  0.8017E+00  0.4099E+02
     14.755  0.8012E+00  0.4099E+02
     14.756  0.8007E+00  0.4099E+02
     14.757  0.8002E+00  0.4099E+02
     14.758  0.7998E+00  0.4099E+02
     14.759  0.7994E+00  0.4099E+02
     14.760  0.7990E+00  0.4099E+02
     14.761  0.7986E+00  0.4099E+02
     14.762  0.7982E+00  0.4099E+02
     14.763  0.7979E+00  0.4099E+02
     14.764  0.7976E+00  0.4099E+02
     14.765  0.7973E+00  0.4099E+02
     14.766  0.7970E+00  0.4100E+02
     14.767  0.7967E+00  0.4100E+02
     14.768  0.7965E+00  0.4100E+02
     14.769  0.7963E+00  0.4100E+02
     14.770  0.7961E+00  0.4100E+02
     14.771  0.7960E+00  0.4100E+02
     14.772  0.7959E+00  0.4100E+02
     14.773  0.7958E+00  0.4100E+02
     14.774  0.7957E+00  0.4100E+02
     14.775  0.7957E+00  0.4100E+02
     14.776  0.7956E+00  0.4100E+02
     14.777  0.7956E+00  0.4100E+02
     14.778  0.7957E+00  0.4101E+02
     14.779  0.7957E+00  0.4101E+02
     14.780  0.7958E+00  0.4101E+02
     14.781  0.7960E+00  0.4101E+02
     14.782  0.7961E+00  0.4101E+02
     14.783  0.7963E+00  0.4101E+02
     14.784  0.7965E+00  0.4101E+02
     14.785  0.7967E+00  0.4101E+02
     14.786  0.7970E+00  0.4101E+02
     14.787  0.7973E+00  0.4101E+02
     14.788  0.7976E+00  0.4101E+02
     14.789  0.7980E+00  0.4101E+02
     14.790  0.7984E+00  0.4101E+02
     14.791  0.7988E+00  0.4102E+02
     14.792  0.7992E+00  0.4102E+02
     14.793  0.7997E+00  0.4102E+02
     14.794  0.8002E+00  0.4102E+02
     14.795  0.8008E+00  0.4102E+02
     14.796  0.8013E+00  0.4102E+02
     14.797  0.8019E+00  0.4102E+02
     14.798  0.8026E+00  0.4102E+02
     14.799  0.8032E+00  0.4102E+02
     14.800  0.8039E+00  0.4102E+02
     14.801  0.8046E+00  0.4102E+02
     14.802  0.8054E+00  0.4102E+02
     14.803  0.8061E+00  0.4103E+02
     14.804  0.8070E+00  0.4103E+02
     14.805  0.8078E+00  0.4103E+02
     14.806  0.8086E+00  0.4103E+02
     14.807  0.8095E+00  0.4103E+02
     14.808  0.8104E+00  0.4103E+02
     14.809  0.8114E+00  0.4103E+02
     14.810  0.8124E+00  0.4103E+02
     14.811  0.8134E+00  0.4103E+02
     14.812  0.8144E+00  0.4103E+02
     14.813  0.8154E+00  0.4103E+02
     14.814  0.8165E+00  0.4103E+02
     14.815  0.8176E+00  0.4104E+02
     14.816  0.8187E+00  0.4104E+02
     14.817  0.8198E+00  0.4104E+02
     14.818  0.8210E+00  0.4104E+02
     14.819  0.8222E+00  0.4104E+02
     14.820  0.8234E+00  0.4104E+02
     14.821  0.8246E+00  0.4104E+02
     14.822  0.8259E+00  0.4104E+02
     14.823  0.8271E+00  0.4104E+02
     14.824  0.8284E+00  0.4104E+02
     14.825  0.8297E+00  0.4104E+02
     14.826  0.8310E+00  0.4104E+02
     14.827  0.8323E+00  0.4104E+02
     14.828  0.8337E+00  0.4105E+02
     14.829  0.8350E+00  0.4105E+02
     14.830  0.8364E+00  0.4105E+02
     14.831  0.8378E+00  0.4105E+02
     14.832  0.8392E+00  0.4105E+02
     14.833  0.8406E+00  0.4105E+02
     14.834  0.8420E+00  0.4105E+02
     14.835  0.8434E+00  0.4105E+02
     14.836  0.8448E+00  0.4105E+02
     14.837  0.8463E+00  0.4105E+02
     14.838  0.8477E+00  0.4105E+02
     14.839  0.8491E+00  0.4106E+02
     14.840  0.8506E+00  0.4106E+02
     14.841  0.8520E+00  0.4106E+02
     14.842  0.8535E+00  0.4106E+02
     14.843  0.8549E+00  0.4106E+02
     14.844  0.8564E+00  0.4106E+02
     14.845  0.8578E+00  0.4106E+02
     14.846  0.8593E+00  0.4106E+02
     14.847  0.8607E+00  0.4106E+02
     14.848  0.8621E+00  0.4106E+02
     14.849  0.8636E+00  0.4106E+02
     14.850  0.8650E+00  0.4106E+02
     14.851  0.8664E+00  0.4107E+02
     14.852  0.8678E+00  0.4107E+02
     14.853  0.8692E+00  0.4107E+02
     14.854  0.8706E+00  0.4107E+02
     14.855  0.8719E+00  0.4107E+02
     14.856  0.8733E+00  0.4107E+02
     14.857  0.8746E+00  0.4107E+02
     14.858  0.8759E+00  0.4107E+02
     14.859  0.8772E+00  0.4107E+02
     14.860  0.8785E+00  0.4107E+02
     14.861  0.8798E+00  0.4107E+02
     14.862  0.8811E+00  0.4107E+02
     14.863  0.8823E+00  0.4108E+02
     14.864  0.8835E+00  0.4108E+02
     14.865  0.8847E+00  0.4108E+02
     14.866  0.8859E+00  0.4108E+02
     14.867  0.8870E+00  0.4108E+02
     14.868  0.8881E+00  0.4108E+02
     14.869  0.8892E+00  0.4108E+02
     14.870  0.8903E+00  0.4108E+02
     14.871  0.8914E+00  0.4108E+02
     14.872  0.8924E+00  0.4108E+02
     14.873  0.8934E+00  0.4108E+02
     14.874  0.8943E+00  0.4109E+02
     14.875  0.8953E+00  0.4109E+02
     14.876  0.8962E+00  0.4109E+02
     14.877  0.8970E+00  0.4109E+02
     14.878  0.8979E+00  0.4109E+02
     14.879  0.8987E+00  0.4109E+02
     14.880  0.8995E+00  0.4109E+02
     14.881  0.9002E+00  0.4109E+02
     14.882  0.9010E+00  0.4109E+02
     14.883  0.9016E+00  0.4109E+02
     14.884  0.9023E+00  0.4109E+02
     14.885  0.9029E+00  0.4110E+02
     14.886  0.9035E+00  0.4110E+02
     14.887  0.9041E+00  0.4110E+02
     14.888  0.9046E+00  0.4110E+02
     14.889  0.9051E+00  0.4110E+02
     14.890  0.9055E+00  0.4110E+02
     14.891  0.9060E+00  0.4110E+02
     14.892  0.9064E+00  0.4110E+02
     14.893  0.9067E+00  0.4110E+02
     14.894  0.9071E+00  0.4110E+02
     14.895  0.9074E+00  0.4110E+02
     14.896  0.9076E+00  0.4111E+02
     14.897  0.9079E+00  0.4111E+02
     14.898  0.9081E+00  0.4111E+02
     14.899  0.9082E+00  0.4111E+02
     14.900  0.9084E+00  0.4111E+02
     14.901  0.9085E+00  0.4111E+02
     14.902  0.9086E+00  0.4111E+02
     14.903  0.9087E+00  0.4111E+02
     14.904  0.9087E+00  0.4111E+02
     14.905  0.9087E+00  0.4111E+02
     14.906  0.9087E+00  0.4111E+02
     14.907  0.9087E+00  0.4112E+02
     14.908  0.9086E+00  0.4112E+02
     14.909  0.9085E+00  0.4112E+02
     14.910  0.9084E+00  0.4112E+02
     14.911  0.9083E+00  0.4112E+02
     14.912  0.9081E+00  0.4112E+02
     14.913  0.9080E+00  0.4112E+02
     14.914  0.9078E+00  0.4112E+02
     14.915  0.9076E+00  0.4112E+02
     14.916  0.9074E+00  0.4112E+02
     14.917  0.9071E+00  0.4112E+02
     14.918  0.9069E+00  0.4113E+02
     14.919  0.9067E+00  0.4113E+02
     14.920  0.9064E+00  0.4113E+02
     14.921  0.9061E+00  0.4113E+02
     14.922  0.9059E+00  0.4113E+02
     14.923  0.9056E+00  0.4113E+02
     14.924  0.9053E+00  0.4113E+02
     14.925  0.9051E+00  0.4113E+02
     14.926  0.9048E+00  0.4113E+02
     14.927  0.9045E+00  0.4113E+02
     14.928  0.9043E+00  0.4113E+02
     14.929  0.9040E+00  0.4114E+02
     14.930  0.9038E+00  0.4114E+02
     14.931  0.9035E+00  0.4114E+02
     14.932  0.9033E+00  0.4114E+02
     14.933  0.9031E+00  0.4114E+02
     14.934  0.9029E+00  0.4114E+02
     14.935  0.9027E+00  0.4114E+02
     14.936  0.9025E+00  0.4114E+02
     14.937  0.9024E+00  0.4114E+02
     14.938  0.9023E+00  0.4114E+02
     14.939  0.9022E+00  0.4114E+02
     14.940  0.9021E+00  0.4115E+02
     14.941  0.9021E+00  0.4115E+02
     14.942  0.9021E+00  0.4115E+02
     14.943  0.9021E+00  0.4115E+02
     14.944  0.9022E+00  0.4115E+02
     14.945  0.9023E+00  0.4115E+02
     14.946  0.9025E+00  0.4115E+02
     14.947  0.9027E+00  0.4115E+02
     14.948  0.9029E+00  0.4115E+02
     14.949  0.9032E+00  0.4115E+02
     14.950  0.9035E+00  0.4115E+02
     14.951  0.9039E+00  0.4116E+02
     14.952  0.9043E+00  0.4116E+02
     14.953  0.9048E+00  0.4116E+02
     14.954  0.9053E+00  0.4116E+02
     14.955  0.9059E+00  0.4116E+02
     14.956  0.9066E+00  0.4116E+02
     14.957  0.9073E+00  0.4116E+02
     14.958  0.9081E+00  0.4116E+02
     14.959  0.9090E+00  0.4116E+02
     14.960  0.9099E+00  0.4116E+02
     14.961  0.9109E+00  0.4116E+02
     14.962  0.9119E+00  0.4117E+02
     14.963  0.9130E+00  0.4117E+02
     14.964  0.9142E+00  0.4117E+02
     14.965  0.9155E+00  0.4117E+02
     14.966  0.9169E+00  0.4117E+02
     14.967  0.9183E+00  0.4117E+02
     14.968  0.9198E+00  0.4117E+02
     14.969  0.9214E+00  0.4117E+02
     14.970  0.9231E+00  0.4117E+02
     14.971  0.9248E+00  0.4117E+02
     14.972  0.9267E+00  0.4117E+02
     14.973  0.9286E+00  0.4118E+02
     14.974  0.9306E+00  0.4118E+02
     14.975  0.9327E+00  0.4118E+02
     14.976  0.9349E+00  0.4118E+02
     14.977  0.9372E+00  0.4118E+02
     14.978  0.9395E+00  0.4118E+02
     14.979  0.9420E+00  0.4118E+02
     14.980  0.9446E+00  0.4118E+02
     14.981  0.9472E+00  0.4118E+02
     14.982  0.9499E+00  0.4118E+02
     14.983  0.9528E+00  0.4118E+02
     14.984  0.9557E+00  0.4119E+02
     14.985  0.9587E+00  0.4119E+02
     14.986  0.9618E+00  0.4119E+02
     14.987  0.9651E+00  0.4119E+02
     14.988  0.9684E+00  0.4119E+02
     14.989  0.9718E+00  0.4119E+02
     14.990  0.9753E+00  0.4119E+02
     14.991  0.9789E+00  0.4119E+02
     14.992  0.9826E+00  0.4119E+02
     14.993  0.9863E+00  0.4119E+02
     14.994  0.9902E+00  0.4120E+02
     14.995  0.9942E+00  0.4120E+02
     14.996  0.9983E+00  0.4120E+02
     14.997  0.1002E+01  0.4120E+02
     14.998  0.1007E+01  0.4120E+02
     14.999  0.1011E+01  0.4120E+02
     15.000  0.1015E+01  0.4120E+02
     15.001  0.1020E+01  0.4120E+02
     15.002  0.1025E+01  0.4120E+02
     15.003  0.1029E+01  0.4120E+02
     15.004  0.1034E+01  0.4121E+02
     15.005  0.1039E+01  0.4121E+02
     15.006  0.1044E+01  0.4121E+02
     15.007  0.1049E+01  0.4121E+02
     15.008  0.1054E+01  0.4121E+02
     15.009  0.1059E+01  0.4121E+02
     15.010  0.1064E+01  0.4121E+02
     15.011  0.1070E+01  0.4121E+02
     15.012  0.1075E+01  0.4121E+02
     15.013  0.1081E+01  0.4122E+02
     15.014  0.1086E+01  0.4122E+02
     15.015  0.1092E+01  0.4122E+02
     15.016  0.1098E+01  0.4122E+02
     15.017  0.1103E+01  0.4122E+02
     15.018  0.1109E+01  0.4122E+02
     15.019  0.1115E+01  0.4122E+02
     15.020  0.1121E+01  0.4122E+02
     15.021  0.1127E+01  0.4122E+02
     15.022  0.1133E+01  0.4123E+02
     15.023  0.1139E+01  0.4123E+02
     15.024  0.1145E+01  0.4123E+02
     15.025  0.1151E+01  0.4123E+02
     15.026  0.1158E+01  0.4123E+02
     15.027  0.1164E+01  0.4123E+02
     15.028  0.1170E+01  0.4123E+02
     15.029  0.1176E+01  0.4123E+02
     15.030  0.1183E+01  0.4123E+02
     15.031  0.1189E+01  0.4124E+02
     15.032  0.1196E+01  0.4124E+02
     15.033  0.1202E+01  0.4124E+02
     15.034  0.1208E+01  0.4124E+02
     15.035  0.1215E+01  0.4124E+02
     15.036  0.1221E+01  0.4124E+02
     15.037  0.1228E+01  0.4124E+02
     15.038  0.1234E+01  0.4124E+02
     15.039  0.1241E+01  0.4125E+02
     15.040  0.1247E+01  0.4125E+02
     15.041  0.1254E+01  0.4125E+02
     15.042  0.1260E+01  0.4125E+02
     15.043  0.1267E+01  0.4125E+02
     15.044  0.1273E+01  0.4125E+02
     15.045  0.1280E+01  0.4125E+02
     15.046  0.1286E+01  0.4125E+02
     15.047  0.1292E+01  0.4126E+02
     15.048  0.1299E+01  0.4126E+02
     15.049  0.1305E+01  0.4126E+02
     15.050  0.1311E+01  0.4126E+02
     15.051  0.1318E+01  0.4126E+02
     15.052  0.1324E+01  0.4126E+02
     15.053  0.1330E+01  0.4126E+02
     15.054  0.1336E+01  0.4126E+02
     15.055  0.1342E+01  0.4127E+02
     15.056  0.1348E+01  0.4127E+02
     15.057  0.1354E+01  0.4127E+02
     15.058  0.1360E+01  0.4127E+02
     15.059  0.1366E+01  0.4127E+02
     15.060  0.1372E+01  0.4127E+02
     15.061  0.1378E+01  0.4127E+02
     15.062  0.1383E+01  0.4128E+02
     15.063  0.1389E+01  0.4128E+02
     15.064  0.1394E+01  0.4128E+02
     15.065  0.1400E+01  0.4128E+02
     15.066  0.1405E+01  0.4128E+02
     15.067  0.1410E+01  0.4128E+02
     15.068  0.1416E+01  0.4128E+02
     15.069  0.1421E+01  0.4129E+02
     15.070  0.1426E+01  0.4129E+02
     15.071  0.1431E+01  0.4129E+02
     15.072  0.1435E+01  0.4129E+02
     15.073  0.1440E+01  0.4129E+02
     15.074  0.1445E+01  0.4129E+02
     15.075  0.1449E+01  0.4129E+02
     15.076  0.1454E+01  0.4130E+02
     15.077  0.1458E+01  0.4130E+02
     15.078  0.1462E+01  0.4130E+02
     15.079  0.1466E+01  0.4130E+02
     15.080  0.1470E+01  0.4130E+02
     15.081  0.1474E+01  0.4130E+02
     15.082  0.1478E+01  0.4130E+02
     15.083  0.1482E+01  0.4131E+02
     15.084  0.1485E+01  0.4131E+02
     15.085  0.1489E+01  0.4131E+02
     15.086  0.1492E+01  0.4131E+02
     15.087  0.1495E+01  0.4131E+02
     15.088  0.1498E+01  0.4131E+02
     15.089  0.1501E+01  0.4132E+02
     15.090  0.1504E+01  0.4132E+02
     15.091  0.1506E+01  0.4132E+02
     15.092  0.1509E+01  0.4132E+02
     15.093  0.1511E+01  0.4132E+02
     15.094  0.1514E+01  0.4132E+02
     15.095  0.1516E+01  0.4132E+02
     15.096  0.1518E+01  0.4133E+02
     15.097  0.1520E+01  0.4133E+02
     15.098  0.1521E+01  0.4133E+02