   22   22    1    1
  0.1671580E+01  0.2963800E-09  0.2963800E-09  0.4186510E-09  0.5000000E-15
   1.0000000000000000E-004
  CAR 
 unknown system                          
     41    270     32

  0.1262379E-14  0.1262379E-14  0.1262379E-14  0.3145643E-03
      1        -29.608758   1.000000
      2        -26.851554   1.000000
      3        -14.466570   1.000000
      4         -9.998274   1.000000
      5         -9.998274   1.000000
      6         -9.248394   1.000000
      7         -7.785332   1.000000
      8         -7.710402   1.000000
      9         -7.710402   1.000000
     10         -7.376279   1.000000
     11         -2.852302   1.000000
     12          3.777575   1.000000
     13          4.308997   1.000000
     14          7.254114   1.000000
     15          7.254114   1.000000
     16          7.372672   1.000000
     17          8.476194   1.000000
     18          8.476194   1.000000
     19          8.852035   1.000000
     20          9.252937   1.000000
     21          9.252937   1.000000
     22         13.274169   1.000000
     23         14.981323  -0.005646
     24         14.993671  -0.003593
     25         18.823943   0.000000
     26         18.957341   0.000000
     27         18.957341   0.000000
     28         23.754607   0.000000
     29         23.907318   0.000000
     30         24.269714   0.000000
     31         24.269715   0.000000
     32         24.953185   0.000000

  0.5882353E-01  0.1262379E-14  0.1262379E-14  0.1258257E-02
      1        -29.583116   1.000000
      2        -26.846446   1.000000
      3        -14.419201   1.000000
      4        -10.408348   1.000000
      5         -9.967877   1.000000
      6         -9.672053   1.000000
      7         -7.829198   1.000000
      8         -7.706419   1.000000
      9         -7.279897   1.000000
     10         -7.041554   1.000000
     11         -2.646048   1.000000
     12          3.354900   1.000000
     13          4.222864   1.000000
     14          7.067846   1.000000
     15          7.309107   1.000000
     16          7.548359   1.000000
     17          8.268715   1.000000
     18          8.498672   1.000000
     19          8.947843   1.000000
     20          9.017320   1.000000
     21          9.230407   1.000000
     22         13.759908   1.000000
     23         15.199777  -0.000000
     24         15.455649  -0.000000
     25         18.697797   0.000000
     26         18.788941   0.000000
     27         19.075630   0.000000
     28         23.042867   0.000000
     29         23.987941   0.000000
     30         24.273240   0.000000
     31         24.839428   0.000000
     32         25.343161   0.000000

  0.1176471E+00  0.1262379E-14  0.1262379E-14  0.1258257E-02
      1        -29.508109   1.000000
      2        -26.832792   1.000000
      3        -14.277748   1.000000
      4        -11.250741   1.000000
      5        -10.437246   1.000000
      6         -9.878147   1.000000
      7         -7.965908   1.000000
      8         -7.696802   1.000000
      9         -6.573623   1.000000
     10         -6.321396   1.000000
     11         -2.065358   1.000000
     12          2.507724   1.000000
     13          3.998168   1.000000
     14          6.125678   1.000000
     15          7.473888   1.000000
     16          7.686129   1.000000
     17          7.950899   1.000000
     18          8.283200   1.000000
     19          8.501514   1.000000
     20          8.887961   1.000000
     21         10.404065   1.000000
     22         14.497996   1.000390
     23         16.091150  -0.000000
     24         16.638722  -0.000000
     25         17.997407   0.000000
     26         18.258541   0.000000
     27         19.779061   0.000000
     28         22.387118   0.000000
     29         24.321281   0.000000
     30         24.415231   0.000000
     31         24.595015   0.000000
     32         26.186691   0.000000

  0.1764706E+00  0.1262379E-14  0.1262379E-14  0.1258257E-02
      1        -29.389588   1.000000
      2        -26.815192   1.000000
      3        -14.044237   1.000000
      4        -12.156122   1.000000
      5        -11.234788   1.000000
      6         -9.733798   1.000000
      7         -8.207564   1.000000
      8         -7.688389   1.000000
      9         -5.919690   1.000000
     10         -5.479985   1.000000
     11         -1.246979   1.000000
     12          1.679970   1.000000
     13          3.655562   1.000000
     14          4.863976   1.000000
     15          6.886430   1.000000
     16          7.544072   1.000000
     17          7.748196   1.000000
     18          8.148966   1.000000
     19          8.300811   1.000000
     20          9.461325   1.000000
     21         12.102778   1.000000
     22         14.993055  -0.003678
     23         17.021036   0.000000
     24         17.398831   0.000000
     25         17.684775   0.000000
     26         18.192714   0.000000
     27         20.823987   0.000000
     28         22.143838   0.000000
     29         23.706039   0.000000
     30         24.458918   0.000000
     31         24.889397   0.000000
     32         26.559141   0.000000

  0.2352941E+00  0.1262379E-14  0.1262379E-14  0.1258257E-02
      1        -29.237821   1.000000
      2        -26.800144   1.000000
      3        -13.722417   1.000000
      4        -12.990501   1.000000
      5        -11.984559   1.000000
      6         -9.543089   1.000000
      7         -8.564333   1.000000
      8         -7.691472   1.000000
      9         -5.293555   1.000000
     10         -4.624148   1.000000
     11         -0.432040   1.000000
     12          1.031259   1.000000
     13          3.225060   1.000000
     14          3.539189   1.000000
     15          6.078826   1.000000
     16          6.806037   1.000000
     17          7.975350   1.000000
     18          8.131262   1.000000
     19          8.697144   1.000000
     20         10.278348   1.000000
     21         14.074637   1.000000
     22         15.489732  -0.000000
     23         15.915762  -0.000000
     24         16.353054  -0.000000
     25         19.517664   0.000000
     26         19.919543   0.000000
     27         22.111138   0.000000
     28         22.220827   0.000000
     29         22.780103   0.000000
     30         24.508652   0.000000
     31         24.692185   0.000000
     32         26.877157   0.000000

  0.2941176E+00  0.1262379E-14  0.1262379E-14  0.1258257E-02
      1        -29.068214   1.000000
      2        -26.793901   1.000000
      3        -13.695170   1.000000
      4        -13.318604   1.000000
      5        -12.643965   1.000000
      6         -9.318819   1.000000
      7         -9.032931   1.000000
      8         -7.717582   1.000000
      9         -4.646047   1.000000
     10         -3.778073   1.000000
     11          0.091797   1.000000
     12          0.608819   1.000000
     13          2.254334   1.000000
     14          2.747022   1.000000
     15          5.385430   1.000000
     16          6.114290   1.000000
     17          8.226558   1.000000
     18          8.621972   1.000000
     19          9.178345   1.000000
     20         11.208773   1.000000
     21         14.777544   0.444712
     22         15.244032  -0.000000
     23         16.097286  -0.000000
     24         16.224047  -0.000000
     25         21.114633   0.000000
     26         21.678521   0.000000
     27         21.892916   0.000000
     28         22.515909   0.000000
     29         23.582298   0.000000
     30         23.769567   0.000000
     31         25.005628   0.000000
     32         25.273198   0.000000

  0.3529412E+00  0.1262379E-14  0.1262379E-14  0.1258257E-02
      1        -28.901995   1.000000
      2        -26.799342   1.000000
      3        -14.238627   1.000000
      4        -13.178828   1.000000
      5        -12.843756   1.000000
      6         -9.589332   1.000000
      7         -9.080169   1.000000
      8         -7.774825   1.000000
      9         -3.943010   1.000000
     10         -2.946879   1.000000
     11          0.123429   1.000000
     12          0.405543   1.000000
     13          1.075933   1.000000
     14          2.268078   1.000000
     15          4.862845   1.000000
     16          5.517880   1.000000
     17          9.020546   1.000000
     18          9.218562   1.000000
     19          9.753365   1.000000
     20         12.091267   1.000000
     21         13.662787   1.000000
     22         14.164929   1.000000
     23         16.864158   0.000000
     24         18.476873   0.000000
     25         20.702510   0.000000
     26         21.486888   0.000000
     27         22.970874   0.000000
     28         23.152851   0.000000
     29         23.318215   0.000000
     30         24.786904   0.000000
     31         25.201808   0.000000
     32         25.371548   0.000000

  0.4117647E+00  0.1262379E-14  0.1262379E-14  0.1258257E-02
      1        -28.765861   1.000000
      2        -26.812870   1.000000
      3        -14.604675   1.000000
      4        -13.558262   1.000000
      5        -12.321456   1.000000
      6        -10.186239   1.000000
      7         -8.857660   1.000000
      8         -7.858909   1.000000
      9         -3.166480   1.000000
     10         -2.138314   1.000000
     11         -0.417776   1.000000
     12          0.154181   1.000000
     13          0.374948   1.000000
     14          1.846057   1.000000
     15          4.533035   1.000000
     16          5.064883   1.000000
     17          9.918347   1.000000
     18         10.221196   1.000000
     19         10.416279   1.000000
     20         12.604539   1.000000
     21         12.654362   1.000000
     22         13.149045   1.000000
     23         17.824290   0.000000
     24         19.868561   0.000000
     25         20.292914   0.000000
     26         20.781690   0.000000
     27         21.898373   0.000000
     28         23.556822   0.000000
     29         24.671610   0.000000
     30         25.737916   0.000000
     31         26.037832   0.000000
     32         26.328551   0.000000

  0.4705882E+00  0.1262379E-14  0.1262379E-14  0.1258257E-02
      1        -28.687972   1.000000
      2        -26.824467   1.000000
      3        -14.787795   1.000000
      4        -13.756014   1.000000
      5        -11.840516   1.000000
      6        -10.711442   1.000000
      7         -8.706732   1.000000
      8         -7.934978   1.000000
      9         -2.317170   1.000000
     10         -1.482932   1.000000
     11         -1.227255   1.000000
     12         -0.527732   1.000000
     13          0.424479   1.000000
     14          1.571886   1.000000
     15          4.386328   1.000000
     16          4.809322   1.000000
     17         10.714489   1.000000
     18         11.109217   1.000000
     19         11.469348   1.000000
     20         11.625690   1.000000
     21         12.275763   1.000000
     22         12.560607   1.000000
     23         18.885144   0.000000
     24         19.329447   0.000000
     25         19.591867   0.000000
     26         20.506418   0.000000
     27         22.906204   0.000000
     28         24.297166   0.000000
     29         25.240922   0.000000
     30         25.510161   0.000000
     31         25.851220   0.000000
     32         25.996539   0.000000

  0.5882353E-01  0.5882353E-01  0.1262379E-14  0.1258257E-02
      1        -29.557661   1.000000
      2        -26.841173   1.000000
      3        -14.371939   1.000000
      4        -10.471947   1.000000
      5        -10.282551   1.000000
      6         -9.930914   1.000000
      7         -7.870496   1.000000
      8         -7.797545   1.000000
      9         -6.910035   1.000000
     10         -6.704745   1.000000
     11         -2.455217   1.000000
     12          3.024855   1.000000
     13          4.118224   1.000000
     14          7.043003   1.000000
     15          7.049106   1.000000
     16          7.291187   1.000000
     17          8.226529   1.000000
     18          8.232502   1.000000
     19          8.936523   1.000000
     20          9.461385   1.000000
     21          9.654402   1.000000
     22         13.853879   1.000000
     23         15.080551  -0.000054
     24         16.299116  -0.000000
     25         18.076866   0.000000
     26         19.044485   0.000000
     27         19.272538   0.000000
     28         22.925124   0.000000
     29         23.953188   0.000000
     30         24.244361   0.000000
     31         24.746503   0.000000
     32         25.924531   0.000000

  0.1176471E+00  0.5882353E-01  0.1262379E-14  0.2516515E-02
      1        -29.483212   1.000000
      2        -26.826996   1.000000
      3        -14.230804   1.000000
      4        -11.234181   1.000000
      5        -10.592115   1.000000
      6        -10.214601   1.000000
      7         -7.999774   1.000000
      8         -7.843094   1.000000
      9         -6.268231   1.000000
     10         -6.002247   1.000000
     11         -1.910066   1.000000
     12          2.283783   1.000000
     13          3.875936   1.000000
     14          5.886927   1.000000
     15          7.030009   1.000000
     16          7.040369   1.000000
     17          7.475803   1.000000
     18          8.860663   1.000000
     19          9.073148   1.000000
     20          9.867292   1.000000
     21         10.476083   1.000000
     22         14.435632   1.000011
     23         15.466796  -0.000000
     24         17.157931   0.000000
     25         17.742421   0.000000
     26         18.902493   0.000000
     27         19.851229   0.000000
     28         22.482036   0.000000
     29         23.932276   0.000000
     30         24.403328   0.000000
     31         24.870079   0.000000
     32         25.992024   0.000000

  0.1764706E+00  0.5882353E-01  0.1262379E-14  0.2516515E-02
      1        -29.365617   1.000000
      2        -26.808495   1.000000
      3        -13.997860   1.000000
      4        -12.129319   1.000000
      5        -11.308287   1.000000
      6        -10.071319   1.000000
      7         -8.230064   1.000000
      8         -7.847723   1.000000
      9         -5.617931   1.000000
     10         -5.220955   1.000000
     11         -1.127267   1.000000
     12          1.507011   1.000000
     13          3.528236   1.000000
     14          4.523087   1.000000
     15          6.717946   1.000000
     16          6.743598   1.000000
     17          7.222304   1.000000
     18          8.916415   1.000000
     19          9.254388   1.000000
     20         10.111553   1.000000
     21         12.157777   1.000000
     22         15.029891  -0.000771
     23         16.097497  -0.000000
     24         16.674085  -0.000000
     25         18.308259   0.000000
     26         19.415311   0.000000
     27         20.769099   0.000000
     28         22.124435   0.000000
     29         23.727120   0.000000
     30         24.228472   0.000000
     31         25.027972   0.000000
     32         26.557326   0.000000

  0.2352941E+00  0.5882353E-01  0.1262379E-14  0.2516515E-02
      1        -29.215145   1.000000
      2        -26.792134   1.000000
      3        -13.676905   1.000000
      4        -12.961100   1.000000
      5        -12.019727   1.000000
      6         -9.861363   1.000000
      7         -8.573279   1.000000
      8         -7.849995   1.000000
      9         -4.999096   1.000000
     10         -4.431464   1.000000
     11         -0.343053   1.000000
     12          0.880496   1.000000
     13          3.094232   1.000000
     14          3.217908   1.000000
     15          6.085550   1.000000
     16          6.217937   1.000000
     17          7.541315   1.000000
     18          8.718720   1.000000
     19          9.671103   1.000000
     20         10.704100   1.000000
     21         14.129075   1.000000
     22         14.984644  -0.005019
     23         15.541135  -0.000000
     24         17.387989   0.000000
     25         18.400478   0.000000
     26         21.111946   0.000000
     27         21.965459   0.000000
     28         22.068540   0.000000
     29         22.835094   0.000000
     30         24.602616   0.000000
     31         24.630332   0.000000
     32         26.890926   0.000000

  0.2941176E+00  0.5882353E-01  0.1262379E-14  0.2516515E-02
      1        -29.047152   1.000000
      2        -26.784188   1.000000
      3        -13.666198   1.000000
      4        -13.274331   1.000000
      5        -12.656993   1.000000
      6         -9.610219   1.000000
      7         -9.028288   1.000000
      8         -7.873054   1.000000
      9         -4.380406   1.000000
     10         -3.651608   1.000000
     11          0.143276   1.000000
     12          0.468875   1.000000
     13          2.004162   1.000000
     14          2.610164   1.000000
     15          5.592728   1.000000
     16          5.675350   1.000000
     17          7.979487   1.000000
     18          8.812796   1.000000
     19         10.171592   1.000000
     20         11.514552   1.000000
     21         13.874391   1.000000
     22         16.144724  -0.000000
     23         16.243630  -0.000000
     24         16.354857  -0.000000
     25         20.225794   0.000000
     26         21.779176   0.000000
     27         22.259771   0.000000
     28         22.598907   0.000000
     29         23.090013   0.000000
     30         24.273616   0.000000
     31         25.056686   0.000000
     32         25.347029   0.000000

  0.3529412E+00  0.5882353E-01  0.1262379E-14  0.2516515E-02
      1        -28.882736   1.000000
      2        -26.787681   1.000000
      3        -14.211439   1.000000
      4        -13.178021   1.000000
      5        -12.801270   1.000000
      6         -9.572835   1.000000
      7         -9.339874   1.000000
      8         -7.931571   1.000000
      9         -3.728331   1.000000
     10         -2.889790   1.000000
     11          0.137173   1.000000
     12          0.273990   1.000000
     13          0.916083   1.000000
     14          2.121813   1.000000
     15          5.141627   1.000000
     16          5.310679   1.000000
     17          8.527203   1.000000
     18          9.427911   1.000000
     19         10.763005   1.000000
     20         12.335566   1.000000
     21         12.813490   1.000000
     22         15.238975  -0.000000
     23         16.902595   0.000000
     24         18.528970   0.000000
     25         20.739265   0.000000
     26         21.373700   0.000000
     27         22.633949   0.000000
     28         22.851595   0.000000
     29         23.016759   0.000000
     30         24.871859   0.000000
     31         25.379226   0.000000
     32         25.773215   0.000000

  0.4117647E+00  0.5882353E-01  0.1262379E-14  0.2516515E-02
      1        -28.748282   1.000000
      2        -26.799355   1.000000
      3        -14.579549   1.000000
      4        -13.548896   1.000000
      5        -12.281551   1.000000
      6        -10.160358   1.000000
      7         -9.083997   1.000000
      8         -8.024747   1.000000
      9         -3.027908   1.000000
     10         -2.161840   1.000000
     11         -0.374460   1.000000
     12          0.065354   1.000000
     13          0.254072   1.000000
     14          1.686778   1.000000
     15          4.822146   1.000000
     16          5.039494   1.000000
     17          9.174673   1.000000
     18         10.514098   1.000000
     19         11.364753   1.000000
     20         11.907555   1.000000
     21         12.869912   1.000000
     22         14.194724   1.000000
     23         17.850432   0.000000
     24         19.917560   0.000000
     25         20.323085   0.000000
     26         20.829953   0.000000
     27         21.844470   0.000000
     28         23.159833   0.000000
     29         24.252887   0.000000
     30         25.167303   0.000000
     31         26.027088   0.000000
     32         26.508403   0.000000

  0.4705882E+00  0.5882353E-01  0.1262379E-14  0.2516515E-02
      1        -28.671462   1.000000
      2        -26.809771   1.000000
      3        -14.764053   1.000000
      4        -13.742402   1.000000
      5        -11.804171   1.000000
      6        -10.678635   1.000000
      7         -8.906148   1.000000
      8         -8.114391   1.000000
      9         -2.312772   1.000000
     10         -1.638617   1.000000
     11         -0.981634   1.000000
     12         -0.580967   1.000000
     13          0.316083   1.000000
     14          1.398570   1.000000
     15          4.674610   1.000000
     16          4.868442   1.000000
     17          9.888525   1.000000
     18         10.844095   1.000000
     19         11.719388   1.000000
     20         12.321526   1.000000
     21         12.758712   1.000000
     22         13.229267   1.000000
     23         18.903609   0.000000
     24         19.371418   0.000000
     25         19.628403   0.000000
     26         20.498009   0.000000
     27         22.928329   0.000000
     28         23.889351   0.000000
     29         24.551904   0.000000
     30         25.292352   0.000000
     31         25.708897   0.000000
     32         26.890731   0.000000

  0.1176471E+00  0.1176471E+00  0.1262379E-14  0.1258257E-02
      1        -29.410420   1.000000
      2        -26.811223   1.000000
      3        -14.090661   1.000000
      4        -11.362913   1.000000
      5        -10.972909   1.000000
      6        -10.794674   1.000000
      7         -8.107380   1.000000
      8         -8.036325   1.000000
      9         -5.673110   1.000000
     10         -5.319851   1.000000
     11         -1.451316   1.000000
     12          1.716627   1.000000
     13          3.589522   1.000000
     14          4.900759   1.000000
     15          6.558775   1.000000
     16          6.731070   1.000000
     17          6.828969   1.000000
     18          9.545271   1.000000
     19         10.192252   1.000000
     20         10.829719   1.000000
     21         10.943904   1.000000
     22         14.457657   1.000043
     23         15.345404  -0.000000
     24         16.118903  -0.000000
     25         19.295562   0.000000
     26         19.301403   0.000000
     27         20.142077   0.000000
     28         22.727915   0.000000
     29         23.223183   0.000000
     30         24.223219   0.000000
     31         25.502830   0.000000
     32         25.721640   0.000000

  0.1764706E+00  0.1176471E+00  0.1262379E-14  0.2516515E-02
      1        -29.295613   1.000000
      2        -26.789963   1.000000
      3        -13.859446   1.000000
      4        -12.085692   1.000000
      5        -11.515086   1.000000
      6        -10.795458   1.000000
      7         -8.304122   1.000000
      8         -8.141221   1.000000
      9         -5.046061   1.000000
     10         -4.599982   1.000000
     11         -0.760109   1.000000
     12          1.046544   1.000000
     13          3.208937   1.000000
     14          3.683852   1.000000
     15          5.722195   1.000000
     16          6.655330   1.000000
     17          6.873645   1.000000
     18          9.758747   1.000000
     19         10.779834   1.000000
     20         11.455614   1.000000
     21         12.322731   1.000000
     22         15.049695  -0.000292
     23         15.095652  -0.000022
     24         15.853853  -0.000000
     25         19.205065   0.000000
     26         20.617452   0.000000
     27         21.102703   0.000000
     28         22.213875   0.000000
     29         23.587768   0.000000
     30         23.737319   0.000000
     31         25.022219   0.000000
     32         26.920262   0.000000

  0.2352941E+00  0.1176471E+00  0.1262379E-14  0.2516515E-02
      1        -29.149027   1.000000
      2        -26.769615   1.000000
      3        -13.541165   1.000000
      4        -12.889419   1.000000
      5        -12.128717   1.000000
      6        -10.569406   1.000000
      7         -8.606580   1.000000
      8         -8.189316   1.000000
      9         -4.456463   1.000000
     10         -3.947256   1.000000
     11         -0.053308   1.000000
     12          0.468727   1.000000
     13          2.548095   1.000000
     14          2.750926   1.000000
     15          5.107986   1.000000
     16          6.465595   1.000000
     17          7.095602   1.000000
     18          9.801881   1.000000
     19         11.193843   1.000000
     20         11.823686   1.000000
     21         13.984974   1.000000
     22         14.295637   1.000000
     23         15.694806  -0.000000
     24         17.295073   0.000000
     25         18.632077   0.000000
     26         21.466059   0.000000
     27         21.776616   0.000000
     28         22.649269   0.000000
     29         23.072595   0.000000
     30         24.336020   0.000000
     31         24.612582   0.000000
     32         26.783155   0.000000

  0.2941176E+00  0.1176471E+00  0.1262379E-14  0.2516515E-02
      1        -28.985875   1.000000
      2        -26.756538   1.000000
      3        -13.589683   1.000000
      4        -13.142478   1.000000
      5        -12.703554   1.000000
      6        -10.275993   1.000000
      7         -9.020018   1.000000
      8         -8.231218   1.000000
      9         -3.914479   1.000000
     10         -3.367673   1.000000
     11          0.078857   1.000000
     12          0.344421   1.000000
     13          1.564065   1.000000
     14          2.242140   1.000000
     15          4.861862   1.000000
     16          6.137534   1.000000
     17          7.456902   1.000000
     18          9.924765   1.000000
     19         11.684049   1.000000
     20         12.390582   1.000000
     21         12.958545   1.000000
     22         16.285451  -0.000000
     23         16.434829  -0.000000
     24         17.733273   0.000000
     25         19.149070   0.000000
     26         21.712388   0.000000
     27         21.911547   0.000000
     28         22.334763   0.000000
     29         23.462094   0.000000
     30         24.844174   0.000000
     31         24.982046   0.000000
     32         25.578444   0.000000

  0.3529412E+00  0.1176471E+00  0.1262379E-14  0.2516515E-02
      1        -28.826832   1.000000
      2        -26.754181   1.000000
      3        -14.137327   1.000000
      4        -13.184419   1.000000
      5        -12.674996   1.000000
      6         -9.948602   1.000000
      7         -9.527773   1.000000
      8         -8.305712   1.000000
      9         -3.413195   1.000000
     10         -2.865015   1.000000
     11         -0.099656   1.000000
     12          0.271906   1.000000
     13          0.777150   1.000000
     14          1.724134   1.000000
     15          4.922448   1.000000
     16          5.776269   1.000000
     17          7.934831   1.000000
     18         10.395193   1.000000
     19         11.876807   1.000000
     20         12.378853   1.000000
     21         13.056596   1.000000
     22         16.710486  -0.000000
     23         17.013817   0.000000
     24         18.685646   0.000000
     25         20.696688   0.000000
     26         21.108407   0.000000
     27         21.921631   0.000000
     28         22.335509   0.000000
     29         22.658140   0.000000
     30         24.930926   0.000000
     31         24.962271   0.000000
     32         26.442718   0.000000

  0.4117647E+00  0.1176471E+00  0.1262379E-14  0.2516515E-02
      1        -28.697361   1.000000
      2        -26.760364   1.000000
      3        -14.509874   1.000000
      4        -13.530405   1.000000
      5        -12.163324   1.000000
      6        -10.085914   1.000000
      7         -9.626404   1.000000
      8         -8.427654   1.000000
      9         -2.967163   1.000000
     10         -2.464564   1.000000
     11         -0.109763   1.000000
     12         -0.095178   1.000000
     13          0.248655   1.000000
     14          1.251793   1.000000
     15          5.017039   1.000000
     16          5.493922   1.000000
     17          8.505841   1.000000
     18         11.014035   1.000000
     19         11.302468   1.000000
     20         13.030816   1.000000
     21         13.513242   1.000000
     22         15.689176  -0.000000
     23         17.922866   0.000000
     24         20.058336   0.000000
     25         20.411472   0.000000
     26         20.974213   0.000000
     27         21.690393   0.000000
     28         22.331626   0.000000
     29         23.427253   0.000000
     30         24.287446   0.000000
     31         25.703866   0.000000
     32         26.623483   0.000000

  0.4705882E+00  0.1176471E+00  0.1262379E-14  0.2516515E-02
      1        -28.623689   1.000000
      2        -26.767294   1.000000
      3        -14.697597   1.000000
      4        -13.711675   1.000000
      5        -11.697101   1.000000
      6        -10.582410   1.000000
      7         -9.388685   1.000000
      8         -8.555706   1.000000
      9         -2.660063   1.000000
     10         -2.228550   1.000000
     11         -0.442756   1.000000
     12         -0.035480   1.000000
     13          0.001659   1.000000
     14          0.921400   1.000000
     15          5.038437   1.000000
     16          5.350749   1.000000
     17          9.092070   1.000000
     18         10.260303   1.000000
     19         12.419956   1.000000
     20         13.356130   1.000000
     21         13.825631   1.000000
     22         14.721234   0.868781
     23         18.949555   0.000000
     24         19.493711   0.000000
     25         19.736427   0.000000
     26         20.471144   0.000000
     27         22.768866   0.000000
     28         23.175567   0.000000
     29         23.676715   0.000000