Automatically generated mesh
     270
Reciprocal lattice
    0.00000000000000    0.00000000000000    0.00000000000000             1
    0.05882352941177    0.00000000000000    0.00000000000000             4
    0.11764705882353    0.00000000000000    0.00000000000000             4
    0.17647058823530    0.00000000000000    0.00000000000000             4
    0.23529411764706    0.00000000000000    0.00000000000000             4
    0.29411764705883    0.00000000000000    0.00000000000000             4
    0.35294117647059    0.00000000000000    0.00000000000000             4
    0.41176470588236    0.00000000000000    0.00000000000000             4
    0.47058823529412    0.00000000000000    0.00000000000000             4
    0.05882352941177    0.05882352941177    0.00000000000000             4
    0.11764705882353    0.05882352941177    0.00000000000000             8
    0.17647058823530    0.05882352941177    0.00000000000000             8
    0.23529411764706    0.05882352941177    0.00000000000000             8
    0.29411764705883    0.05882352941177    0.00000000000000             8
    0.35294117647059    0.05882352941177    0.00000000000000             8
    0.41176470588236    0.05882352941177    0.00000000000000             8
    0.47058823529412    0.05882352941177    0.00000000000000             8
    0.11764705882353    0.11764705882353    0.00000000000000             4
    0.17647058823530    0.11764705882353    0.00000000000000             8
    0.23529411764706    0.11764705882353    0.00000000000000             8
    0.29411764705883    0.11764705882353    0.00000000000000             8
    0.35294117647059    0.11764705882353    0.00000000000000             8
    0.41176470588236    0.11764705882353    0.00000000000000             8
    0.47058823529412    0.11764705882353    0.00000000000000             8
    0.17647058823530    0.17647058823530    0.00000000000000             4
    0.23529411764706    0.17647058823530    0.00000000000000             8
    0.29411764705883    0.17647058823530    0.00000000000000             8
    0.35294117647059    0.17647058823530    0.00000000000000             8
    0.41176470588236    0.17647058823530    0.00000000000000             8
    0.47058823529412    0.17647058823530    0.00000000000000             8
    0.23529411764706    0.23529411764706    0.00000000000000             4
    0.29411764705883    0.23529411764706    0.00000000000000             8
    0.35294117647059    0.23529411764706    0.00000000000000             8
    0.41176470588236    0.23529411764706    0.00000000000000             8
    0.47058823529412    0.23529411764706    0.00000000000000             8
    0.29411764705883    0.29411764705883    0.00000000000000             4
    0.35294117647059    0.29411764705883    0.00000000000000             8
    0.41176470588236    0.29411764705883    0.00000000000000             8
    0.47058823529412    0.29411764705883    0.00000000000000             8
    0.35294117647059    0.35294117647059    0.00000000000000             4
    0.41176470588236    0.35294117647059    0.00000000000000             8
    0.47058823529412    0.35294117647059    0.00000000000000             8
    0.41176470588236    0.41176470588236    0.00000000000000             4
    0.47058823529412    0.41176470588236    0.00000000000000             8
    0.47058823529412    0.47058823529412    0.00000000000000             4
    0.00000000000000    0.00000000000000    0.09090909090909             2
    0.05882352941177    0.00000000000000    0.09090909090909             8
    0.11764705882353    0.00000000000000    0.09090909090909             8
    0.17647058823530    0.00000000000000    0.09090909090909             8
    0.23529411764706    0.00000000000000    0.09090909090909             8
    0.29411764705883    0.00000000000000    0.09090909090909             8
    0.35294117647059    0.00000000000000    0.09090909090909             8
    0.41176470588236    0.00000000000000    0.09090909090909             8
    0.47058823529412    0.00000000000000    0.09090909090909             8
    0.05882352941177    0.05882352941177    0.09090909090909             8
    0.11764705882353    0.05882352941177    0.09090909090909            16
    0.17647058823530    0.05882352941177    0.09090909090909            16
    0.23529411764706    0.05882352941177    0.09090909090909            16
    0.29411764705883    0.05882352941177    0.09090909090909            16
    0.35294117647059    0.05882352941177    0.09090909090909            16
    0.41176470588236    0.05882352941177    0.09090909090909            16
    0.47058823529412    0.05882352941177    0.09090909090909            16
    0.11764705882353    0.11764705882353    0.09090909090909             8
    0.17647058823530    0.11764705882353    0.09090909090909            16
    0.23529411764706    0.11764705882353    0.09090909090909            16
    0.29411764705883    0.11764705882353    0.09090909090909            16
    0.35294117647059    0.11764705882353    0.09090909090909            16
    0.41176470588236    0.11764705882353    0.09090909090909            16
    0.47058823529412    0.11764705882353    0.09090909090909            16
    0.17647058823530    0.17647058823530    0.09090909090909             8
    0.23529411764706    0.17647058823530    0.09090909090909            16
    0.29411764705883    0.17647058823530    0.09090909090909            16
    0.35294117647059    0.17647058823530    0.09090909090909            16
    0.41176470588236    0.17647058823530    0.09090909090909            16
    0.47058823529412    0.17647058823530    0.09090909090909            16
    0.23529411764706    0.23529411764706    0.09090909090909             8
    0.29411764705883    0.23529411764706    0.09090909090909            16
    0.35294117647059    0.23529411764706    0.09090909090909            16
    0.41176470588236    0.23529411764706    0.09090909090909            16
    0.47058823529412    0.23529411764706    0.09090909090909            16
    0.29411764705883    0.29411764705883    0.09090909090909             8
    0.35294117647059    0.29411764705883    0.09090909090909            16
    0.41176470588236    0.29411764705883    0.09090909090909            16
    0.47058823529412    0.29411764705883    0.09090909090909            16
    0.35294117647059    0.35294117647059    0.09090909090909             8
    0.41176470588236    0.35294117647059    0.09090909090909            16
    0.47058823529412    0.35294117647059    0.09090909090909            16
    0.41176470588236    0.41176470588236    0.09090909090909             8
    0.47058823529412    0.41176470588236    0.09090909090909            16
    0.47058823529412    0.47058823529412    0.09090909090909             8
    0.00000000000000    0.00000000000000    0.18181818181818             2
    0.05882352941177    0.00000000000000    0.18181818181818             8
    0.11764705882353    0.00000000000000    0.18181818181818             8
    0.17647058823530    0.00000000000000    0.18181818181818             8
    0.23529411764706    0.00000000000000    0.18181818181818             8
    0.29411764705883    0.00000000000000    0.18181818181818             8
    0.35294117647059    0.00000000000000    0.18181818181818             8
    0.41176470588236    0.00000000000000    0.18181818181818             8
    0.47058823529412    0.00000000000000    0.18181818181818             8
    0.05882352941177    0.05882352941177    0.18181818181818             8
    0.11764705882353    0.05882352941177    0.18181818181818            16
    0.17647058823530    0.05882352941177    0.18181818181818            16
    0.23529411764706    0.05882352941177    0.18181818181818            16
    0.29411764705883    0.05882352941177    0.18181818181818            16
    0.35294117647059    0.05882352941177    0.18181818181818            16
    0.41176470588236    0.05882352941177    0.18181818181818            16
    0.47058823529412    0.05882352941177    0.18181818181818            16
    0.11764705882353    0.11764705882353    0.18181818181818             8
    0.17647058823530    0.11764705882353    0.18181818181818            16
    0.23529411764706    0.11764705882353    0.18181818181818            16
    0.29411764705883    0.11764705882353    0.18181818181818            16
    0.35294117647059    0.11764705882353    0.18181818181818            16
    0.41176470588236    0.11764705882353    0.18181818181818            16
    0.47058823529412    0.11764705882353    0.18181818181818            16
    0.17647058823530    0.17647058823530    0.18181818181818             8
    0.23529411764706    0.17647058823530    0.18181818181818            16
    0.29411764705883    0.17647058823530    0.18181818181818            16
    0.35294117647059    0.17647058823530    0.18181818181818            16
    0.41176470588236    0.17647058823530    0.18181818181818            16
    0.47058823529412    0.17647058823530    0.18181818181818            16
    0.23529411764706    0.23529411764706    0.18181818181818             8
    0.29411764705883    0.23529411764706    0.18181818181818            16
    0.35294117647059    0.23529411764706    0.18181818181818            16
    0.41176470588236    0.23529411764706    0.18181818181818            16
    0.47058823529412    0.23529411764706    0.18181818181818            16
    0.29411764705883    0.29411764705883    0.18181818181818             8
    0.35294117647059    0.29411764705883    0.18181818181818            16
    0.41176470588236    0.29411764705883    0.18181818181818            16
    0.47058823529412    0.29411764705883    0.18181818181818            16
    0.35294117647059    0.35294117647059    0.18181818181818             8
    0.41176470588236    0.35294117647059    0.18181818181818            16
    0.47058823529412    0.35294117647059    0.18181818181818            16
    0.41176470588236    0.41176470588236    0.18181818181818             8
    0.47058823529412    0.41176470588236    0.18181818181818            16
    0.47058823529412    0.47058823529412    0.18181818181818             8
    0.00000000000000    0.00000000000000    0.27272727272727             2
    0.05882352941177    0.00000000000000    0.27272727272727             8
    0.11764705882353    0.00000000000000    0.27272727272727             8
    0.17647058823530    0.00000000000000    0.27272727272727             8
    0.23529411764706    0.00000000000000    0.27272727272727             8
    0.29411764705883    0.00000000000000    0.27272727272727             8
    0.35294117647059    0.00000000000000    0.27272727272727             8
    0.41176470588236    0.00000000000000    0.27272727272727             8
    0.47058823529412    0.00000000000000    0.27272727272727             8
    0.05882352941177    0.05882352941177    0.27272727272727             8
    0.11764705882353    0.05882352941177    0.27272727272727            16
    0.17647058823530    0.05882352941177    0.27272727272727            16
    0.23529411764706    0.05882352941177    0.27272727272727            16
    0.29411764705883    0.05882352941177    0.27272727272727            16
    0.35294117647059    0.05882352941177    0.27272727272727            16
    0.41176470588236    0.05882352941177    0.27272727272727            16
    0.47058823529412    0.05882352941177    0.27272727272727            16
    0.11764705882353    0.11764705882353    0.27272727272727             8
    0.17647058823530    0.11764705882353    0.27272727272727            16
    0.23529411764706    0.11764705882353    0.27272727272727            16
    0.29411764705883    0.11764705882353    0.27272727272727            16
    0.35294117647059    0.11764705882353    0.27272727272727            16
    0.41176470588236    0.11764705882353    0.27272727272727            16
    0.47058823529412    0.11764705882353    0.27272727272727            16
    0.17647058823530    0.17647058823530    0.27272727272727             8
    0.23529411764706    0.17647058823530    0.27272727272727            16
    0.29411764705883    0.17647058823530    0.27272727272727            16
    0.35294117647059    0.17647058823530    0.27272727272727            16
    0.41176470588236    0.17647058823530    0.27272727272727            16
    0.47058823529412    0.17647058823530    0.27272727272727            16
    0.23529411764706    0.23529411764706    0.27272727272727             8
    0.29411764705883    0.23529411764706    0.27272727272727            16
    0.35294117647059    0.23529411764706    0.27272727272727            16
    0.41176470588236    0.23529411764706    0.27272727272727            16
    0.47058823529412    0.23529411764706    0.27272727272727            16
    0.29411764705883    0.29411764705883    0.27272727272727             8
    0.35294117647059    0.29411764705883    0.27272727272727            16
    0.41176470588236    0.29411764705883    0.27272727272727            16
    0.47058823529412    0.29411764705883    0.27272727272727            16
    0.35294117647059    0.35294117647059    0.27272727272727             8
    0.41176470588236    0.35294117647059    0.27272727272727            16
    0.47058823529412    0.35294117647059    0.27272727272727            16
    0.41176470588236    0.41176470588236    0.27272727272727             8
    0.47058823529412    0.41176470588236    0.27272727272727            16
    0.47058823529412    0.47058823529412    0.27272727272727             8
    0.00000000000000    0.00000000000000    0.36363636363637             2
    0.05882352941177    0.00000000000000    0.36363636363637             8
    0.11764705882353    0.00000000000000    0.36363636363637             8
    0.17647058823530    0.00000000000000    0.36363636363637             8
    0.23529411764706    0.00000000000000    0.36363636363637             8
    0.29411764705883    0.00000000000000    0.36363636363637             8
    0.35294117647059    0.00000000000000    0.36363636363637             8
    0.41176470588236    0.00000000000000    0.36363636363637             8
    0.47058823529412    0.00000000000000    0.36363636363637             8
    0.05882352941177    0.05882352941177    0.36363636363637             8
    0.11764705882353    0.05882352941177    0.36363636363637            16
    0.17647058823530    0.05882352941177    0.36363636363637            16
    0.23529411764706    0.05882352941177    0.36363636363637            16
    0.29411764705883    0.05882352941177    0.36363636363637            16
    0.35294117647059    0.05882352941177    0.36363636363637            16
    0.41176470588236    0.05882352941177    0.36363636363637            16
    0.47058823529412    0.05882352941177    0.36363636363637            16
    0.11764705882353    0.11764705882353    0.36363636363637             8
    0.17647058823530    0.11764705882353    0.36363636363637            16
    0.23529411764706    0.11764705882353    0.36363636363637            16
    0.29411764705883    0.11764705882353    0.36363636363637            16
    0.35294117647059    0.11764705882353    0.36363636363637            16
    0.41176470588236    0.11764705882353    0.36363636363637            16
    0.47058823529412    0.11764705882353    0.36363636363637            16
    0.17647058823530    0.17647058823530    0.36363636363637             8
    0.23529411764706    0.17647058823530    0.36363636363637            16
    0.29411764705883    0.17647058823530    0.36363636363637            16
    0.35294117647059    0.17647058823530    0.36363636363637            16
    0.41176470588236    0.17647058823530    0.36363636363637            16
    0.47058823529412    0.17647058823530    0.36363636363637            16
    0.23529411764706    0.23529411764706    0.36363636363637             8
    0.29411764705883    0.23529411764706    0.36363636363637            16
    0.35294117647059    0.23529411764706    0.36363636363637            16
    0.41176470588236    0.23529411764706    0.36363636363637            16
    0.47058823529412    0.23529411764706    0.36363636363637            16
    0.29411764705883    0.29411764705883    0.36363636363637             8
    0.35294117647059    0.29411764705883    0.36363636363637            16
    0.41176470588236    0.29411764705883    0.36363636363637            16
    0.47058823529412    0.29411764705883    0.36363636363637            16
    0.35294117647059    0.35294117647059    0.36363636363637             8
    0.41176470588236    0.35294117647059    0.36363636363637            16
    0.47058823529412    0.35294117647059    0.36363636363637            16
    0.41176470588236    0.41176470588236    0.36363636363637             8
    0.47058823529412    0.41176470588236    0.36363636363637            16
    0.47058823529412    0.47058823529412    0.36363636363637             8
    0.00000000000000    0.00000000000000    0.45454545454545             2
    0.05882352941177    0.00000000000000    0.45454545454545             8
    0.11764705882353    0.00000000000000    0.45454545454545             8
    0.17647058823530    0.00000000000000    0.45454545454545             8
    0.23529411764706    0.00000000000000    0.45454545454545             8
    0.29411764705883    0.00000000000000    0.45454545454545             8
    0.35294117647059    0.00000000000000    0.45454545454545             8
    0.41176470588236    0.00000000000000    0.45454545454545             8
    0.47058823529412    0.00000000000000    0.45454545454545             8
    0.05882352941177    0.05882352941177    0.45454545454545             8
    0.11764705882353    0.05882352941177    0.45454545454545            16
    0.17647058823530    0.05882352941177    0.45454545454545            16
    0.23529411764706    0.05882352941177    0.45454545454545            16
    0.29411764705883    0.05882352941177    0.45454545454545            16
    0.35294117647059    0.05882352941177    0.45454545454545            16
    0.41176470588236    0.05882352941177    0.45454545454545            16
    0.47058823529412    0.05882352941177    0.45454545454545            16
    0.11764705882353    0.11764705882353    0.45454545454545             8
    0.17647058823530    0.11764705882353    0.45454545454545            16
    0.23529411764706    0.11764705882353    0.45454545454545            16
    0.29411764705883    0.11764705882353    0.45454545454545            16
    0.35294117647059    0.11764705882353    0.45454545454545            16
    0.41176470588236    0.11764705882353    0.45454545454545            16
    0.47058823529412    0.11764705882353    0.45454545454545            16
    0.17647058823530    0.17647058823530    0.45454545454545             8
    0.23529411764706    0.17647058823530    0.45454545454545            16
    0.29411764705883    0.17647058823530    0.45454545454545            16
    0.35294117647059    0.17647058823530    0.45454545454545            16
    0.41176470588236    0.17647058823530    0.45454545454545            16
    0.47058823529412    0.17647058823530    0.45454545454545            16
    0.23529411764706    0.23529411764706    0.45454545454545             8
    0.29411764705883    0.23529411764706    0.45454545454545            16
    0.35294117647059    0.23529411764706    0.45454545454545            16
    0.41176470588236    0.23529411764706    0.45454545454545            16
    0.47058823529412    0.23529411764706    0.45454545454545            16
    0.29411764705883    0.29411764705883    0.45454545454545             8
    0.35294117647059    0.29411764705883    0.45454545454545            16
    0.41176470588236    0.29411764705883    0.45454545454545            16
    0.47058823529412    0.29411764705883    0.45454545454545            16
    0.35294117647059    0.35294117647059    0.45454545454545             8
    0.41176470588236    0.35294117647059    0.45454545454545            16
    0.47058823529412    0.35294117647059    0.45454545454545            16
    0.41176470588236    0.41176470588236    0.45454545454545             8
    0.47058823529412    0.41176470588236    0.45454545454545            16
    0.47058823529412    0.47058823529412    0.45454545454545             8
