       N       E                     dE             d eps       ncg     rms          rms(c)
DAV:   1     0.377937710995E+03    0.37794E+03   -0.26083E+04 17280   0.175E+03
DAV:   2     0.164326261682E+02   -0.36151E+03   -0.34309E+03 19600   0.435E+02
DAV:   3    -0.643911761105E+01   -0.22872E+02   -0.22432E+02 22912   0.958E+01
DAV:   4    -0.731655928262E+01   -0.87744E+00   -0.87489E+00 22544   0.157E+01
DAV:   5    -0.733770176774E+01   -0.21142E-01   -0.21137E-01 22616   0.208E+00
DAV:   6    -0.733828315288E+01   -0.58139E-03   -0.58138E-03 20288   0.249E-01
DAV:   7    -0.733829756672E+01   -0.14414E-04   -0.14412E-04 15080   0.317E-02
   1 F= -.73382976E+01 E0= -.73383437E+01  d E =0.138395E-03
