
     Program PWSCF v.6.3 starts on 22Oct2025 at 14:46:24 

     This program is part of the open-source Quantum ESPRESSO suite
     for quantum simulation of materials; please cite
         "P. Giannozzi et al., J. Phys.:Condens. Matter 21 395502 (2009);
         "P. Giannozzi et al., J. Phys.:Condens. Matter 29 465901 (2017);
          URL http://www.quantum-espresso.org", 
     in publications or presentations arising from this work. More details at
     http://www.quantum-espresso.org/quote

     Parallel version (MPI & OpenMP), running on      30 processor cores
     Number of MPI processes:                30
     Threads/MPI process:                     1

     MPI processes distributed on     1 nodes
     R & G space division:  proc/nbgrp/npool/nimage =      30
     Waiting for input...
     Reading input from standard input
Warning: card &IONS ignored
Warning: card / ignored
Warning: card &CELL ignored
Warning: card / ignored
Warning: card   H   2.963799    0.703310    2.624097 ignored
Warning: card   H   2.963799    2.260490    2.624097 ignored

     Current dimensions of program PWSCF are:
     Max number of different atomic species (ntypx) = 10
     Max number of k-points (npk) =  40000
     Max angular momentum in pseudopotentials (lmaxx) =  3
               file Ca.pbe-spn-kjpaw_psl.1.0.0.UPF: wavefunction(s)  3S renormalized
               file Y.pbe-spn-kjpaw_psl.1.0.0.UPF: wavefunction(s)  4S 4P renormalized
               file H.pbe-kjpaw_psl.1.0.0.UPF: wavefunction(s)  1S renormalized

     Subspace diagonalization in iterative solution of the eigenvalue problem:
     one sub-group per band group will be used
     scalapack distributed-memory algorithm (size of sub-group:  3*  3 procs)

 
     Parallelization info
     --------------------
     sticks:   dense  smooth     PW     G-vecs:    dense   smooth      PW
     Min          66      33      9                 3160     1117     175
     Max          67      34     10                 3167     1121     184
     Sum        2001     997    293                94895    33591    5383
 


     bravais-lattice index     =            0
     lattice parameter (alat)  =       5.6008  a.u.
     unit-cell volume          =     248.1684 (a.u.)^3
     number of atoms/cell      =           20
     number of atomic types    =            3
     number of electrons       =        39.00
     number of Kohn-Sham states=           24
     kinetic-energy cutoff     =     100.0000  Ry
     charge density cutoff     =     800.0000  Ry
     convergence threshold     =      1.0E-12
     mixing beta               =       0.2000
     number of iterations used =            8  plain     mixing
     Exchange-correlation      = SLA PW PBX PBC ( 1  4  3  4 0 0)

     celldm(1)=   5.600770  celldm(2)=   0.000000  celldm(3)=   0.000000
     celldm(4)=   0.000000  celldm(5)=   0.000000  celldm(6)=   0.000000

     crystal axes: (cart. coord. in units of alat)
               a(1) = (   1.000000   0.000000   0.000000 )  
               a(2) = (   0.000000   1.000000   0.000000 )  
               a(3) = (   0.000000   0.000000   1.412548 )  

     reciprocal axes: (cart. coord. in units 2 pi/alat)
               b(1) = (  1.000000  0.000000  0.000000 )  
               b(2) = (  0.000000  1.000000  0.000000 )  
               b(3) = (  0.000000  0.000000  0.707941 )  


     PseudoPot. # 1 for Ca read from file:
     /home/nbarrera/CMP/Pseudopotentials/pslibrary/Ca.pbe-spn-kjpaw_psl.1.0.0.UPF
     MD5 check sum: b34883b1b0d01c8190387f8f386a7002
     Pseudo is Projector augmented-wave + core cor, Zval = 10.0
     Generated using 'atomic' code by A. Dal Corso v.7.3.1
     Shape of augmentation charge: PSQ
     Using radial grid of 1169 points,  6 beta functions with: 
                l(1) =   0
                l(2) =   0
                l(3) =   1
                l(4) =   1
                l(5) =   2
                l(6) =   2
     Q(r) pseudized with 0 coefficients 


     PseudoPot. # 2 for Y  read from file:
     /home/nbarrera/CMP/Pseudopotentials/pslibrary/Y.pbe-spn-kjpaw_psl.1.0.0.UPF
     MD5 check sum: 73af4e96bb828780d261eb8994067c6d
     Pseudo is Projector augmented-wave + core cor, Zval = 11.0
     Generated using 'atomic' code by A. Dal Corso v.7.3.1
     Shape of augmentation charge: PSQ
     Using radial grid of 1223 points,  6 beta functions with: 
                l(1) =   0
                l(2) =   0
                l(3) =   1
                l(4) =   1
                l(5) =   2
                l(6) =   2
     Q(r) pseudized with 0 coefficients 


     PseudoPot. # 3 for H  read from file:
     /home/nbarrera/CMP/Pseudopotentials/pslibrary/H.pbe-kjpaw_psl.1.0.0.UPF
     MD5 check sum: 8272f1d388df5211a683b4aab752f4e6
     Pseudo is Projector augmented-wave, Zval =  1.0
     Generated using 'atomic' code by A. Dal Corso v.7.3.1
     Shape of augmentation charge: PSQ
     Using radial grid of  929 points,  2 beta functions with: 
                l(1) =   0
                l(2) =   0
     Q(r) pseudized with 0 coefficients 


     atomic species   valence    mass     pseudopotential
        Ca            10.00    40.07800     Ca( 1.00)
        Y             11.00    88.90500     Y ( 1.00)
        H              1.00     1.00700     H ( 1.00)

      4 Sym. Ops. (no inversion) found



   Cartesian axes

     site n.     atom                  positions (alat units)
         1           Ca  tau(   1) = (   0.9999997   0.9999997   1.4125440  )
         2           Y   tau(   2) = (   0.4999997   0.4999997   0.7062720  )
         3           H   tau(   3) = (   0.2563999   0.4999997   0.1635728  )
         4           H   tau(   4) = (   0.7435998   0.4999997   0.1635728  )
         5           H   tau(   5) = (   0.4999997   0.2563999   0.1635728  )
         6           H   tau(   6) = (   0.4999997   0.7435998   0.1635728  )
         7           H   tau(   7) = (   0.7435998   0.4999997   1.2489716  )
         8           H   tau(   8) = (   0.2563999   0.4999997   1.2489716  )
         9           H   tau(   9) = (   0.4999997   0.2563999   1.2489716  )
        10           H   tau(  10) = (   0.4999997   0.7435998   1.2489716  )
        11           H   tau(  11) = (   0.9999997   0.4999997   1.0711323  )
        12           H   tau(  12) = (   0.4999997   0.9999997   1.0711323  )
        13           H   tau(  13) = (   0.9999997   0.4999997   0.3414120  )
        14           H   tau(  14) = (   0.4999997   0.9999997   0.3414120  )
        15           H   tau(  15) = (   0.2373001   0.9999997   0.5271614  )
        16           H   tau(  16) = (   0.7626999   0.9999997   0.5271614  )
        17           H   tau(  17) = (   0.9999997   0.2373001   0.5271614  )
        18           H   tau(  18) = (   0.9999997   0.7626999   0.5271614  )
        19           H   tau(  19) = (   0.7626999   0.9999997   0.8853826  )
        20           H   tau(  20) = (   0.2373001   0.9999997   0.8853826  )

     number of k points=   486  Methfessel-Paxton smearing, width (Ry)=  0.0100

     Number of k-points >= 100: set verbosity='high' to print them.

     Dense  grid:    94895 G-vectors     FFT dimensions: (  54,  54,  72)

     Smooth grid:    33591 G-vectors     FFT dimensions: (  36,  36,  54)

     Estimated max dynamical RAM per process >      42.96 MB

     Estimated total dynamical RAM >       1.26 GB

     Initial potential from superposition of free atoms

     starting charge   38.99089, renormalised to   39.00000
     Starting wfcs are   39 randomized atomic wfcs
     Checking if some PAW data can be deallocated... 

     total cpu time spent up to now is        7.4 secs

     Self-consistent Calculation

     iteration #  1     ecut=   100.00 Ry     beta= 0.20
     CG style diagonalization
     ethr =  1.00E-02,  avg # of iterations =  2.7

     total cpu time spent up to now is       21.9 secs

     total energy              =    -432.26513751 Ry
     Harris-Foulkes estimate   =    -432.41708391 Ry
     estimated scf accuracy    <       0.70721848 Ry

     iteration #  2     ecut=   100.00 Ry     beta= 0.20
     CG style diagonalization
     ethr =  1.81E-03,  avg # of iterations =  4.7

     total cpu time spent up to now is       44.8 secs

     total energy              =    -432.70122966 Ry
     Harris-Foulkes estimate   =    -432.83591948 Ry
     estimated scf accuracy    <       0.32575438 Ry

     iteration #  3     ecut=   100.00 Ry     beta= 0.20
     CG style diagonalization
     ethr =  8.35E-04,  avg # of iterations =  3.7

     total cpu time spent up to now is       62.1 secs

     total energy              =    -432.75719838 Ry
     Harris-Foulkes estimate   =    -432.78582094 Ry
     estimated scf accuracy    <       0.06494048 Ry

     iteration #  4     ecut=   100.00 Ry     beta= 0.20
     CG style diagonalization
     c_bands:  1 eigenvalues not converged
     c_bands:  1 eigenvalues not converged
     c_bands:  1 eigenvalues not converged
     c_bands:  1 eigenvalues not converged
     c_bands:  1 eigenvalues not converged
     c_bands:  1 eigenvalues not converged
     c_bands:  1 eigenvalues not converged
     ethr =  1.67E-04,  avg # of iterations =  5.3

     total cpu time spent up to now is       88.3 secs

     total energy              =    -432.81320111 Ry
     Harris-Foulkes estimate   =    -432.82321506 Ry
     estimated scf accuracy    <       0.01869423 Ry

     iteration #  5     ecut=   100.00 Ry     beta= 0.20
     CG style diagonalization
     c_bands:  1 eigenvalues not converged
     c_bands:  1 eigenvalues not converged
     c_bands:  1 eigenvalues not converged
     c_bands:  1 eigenvalues not converged
     c_bands:  1 eigenvalues not converged
     c_bands:  1 eigenvalues not converged
     c_bands:  1 eigenvalues not converged
     c_bands:  1 eigenvalues not converged
     c_bands:  1 eigenvalues not converged
     c_bands:  1 eigenvalues not converged
     c_bands:  1 eigenvalues not converged
     c_bands:  2 eigenvalues not converged
     c_bands:  1 eigenvalues not converged
     c_bands:  1 eigenvalues not converged
     c_bands:  1 eigenvalues not converged
     c_bands:  1 eigenvalues not converged
     c_bands:  1 eigenvalues not converged
     c_bands:  1 eigenvalues not converged
     c_bands:  1 eigenvalues not converged
     c_bands:  1 eigenvalues not converged
     c_bands:  1 eigenvalues not converged
     c_bands:  1 eigenvalues not converged
     c_bands:  1 eigenvalues not converged
     c_bands:  1 eigenvalues not converged
     c_bands:  1 eigenvalues not converged
     c_bands:  1 eigenvalues not converged
     c_bands:  1 eigenvalues not converged
     ethr =  4.79E-05,  avg # of iterations =  5.2

     total cpu time spent up to now is      113.6 secs

     total energy              =    -432.83711480 Ry
     Harris-Foulkes estimate   =    -432.83806981 Ry
     estimated scf accuracy    <       0.00948842 Ry

     iteration #  6     ecut=   100.00 Ry     beta= 0.20
     CG style diagonalization
     c_bands:  1 eigenvalues not converged
     c_bands:  1 eigenvalues not converged
     c_bands:  1 eigenvalues not converged
     c_bands:  1 eigenvalues not converged
     c_bands:  1 eigenvalues not converged
     c_bands:  1 eigenvalues not converged
     c_bands:  2 eigenvalues not converged
     c_bands:  1 eigenvalues not converged
     c_bands:  1 eigenvalues not converged
     c_bands:  1 eigenvalues not converged
     c_bands:  1 eigenvalues not converged
     c_bands:  1 eigenvalues not converged
     c_bands:  1 eigenvalues not converged
     c_bands:  1 eigenvalues not converged
     c_bands:  1 eigenvalues not converged
     c_bands:  1 eigenvalues not converged
     c_bands:  1 eigenvalues not converged
     c_bands:  1 eigenvalues not converged
     c_bands:  1 eigenvalues not converged
     c_bands:  1 eigenvalues not converged
     c_bands:  1 eigenvalues not converged
     c_bands:  1 eigenvalues not converged
     c_bands:  1 eigenvalues not converged
     c_bands:  2 eigenvalues not converged
     c_bands:  1 eigenvalues not converged
     c_bands:  2 eigenvalues not converged
     c_bands:  1 eigenvalues not converged
     c_bands:  1 eigenvalues not converged
     c_bands:  1 eigenvalues not converged
     c_bands:  1 eigenvalues not converged
     c_bands:  1 eigenvalues not converged
     c_bands:  1 eigenvalues not converged
     ethr =  2.43E-05,  avg # of iterations =  4.4

     total cpu time spent up to now is      134.7 secs

     total energy              =    -432.83638632 Ry
     Harris-Foulkes estimate   =    -432.84044843 Ry
     estimated scf accuracy    <       0.00730232 Ry

     iteration #  7     ecut=   100.00 Ry     beta= 0.20
     CG style diagonalization
     c_bands:  1 eigenvalues not converged
     c_bands:  1 eigenvalues not converged
     c_bands:  1 eigenvalues not converged
     c_bands:  1 eigenvalues not converged
     c_bands:  1 eigenvalues not converged
     c_bands:  1 eigenvalues not converged
     ethr =  1.87E-05,  avg # of iterations =  4.8

     total cpu time spent up to now is      158.3 secs

     total energy              =    -432.84029689 Ry
     Harris-Foulkes estimate   =    -432.84165182 Ry
     estimated scf accuracy    <       0.00690593 Ry

     iteration #  8     ecut=   100.00 Ry     beta= 0.20
     CG style diagonalization
     c_bands:  1 eigenvalues not converged
     c_bands:  1 eigenvalues not converged
     c_bands:  1 eigenvalues not converged
     c_bands:  1 eigenvalues not converged
     ethr =  1.77E-05,  avg # of iterations =  4.1

     total cpu time spent up to now is      177.9 secs

     total energy              =    -432.84614690 Ry
     Harris-Foulkes estimate   =    -432.84223938 Ry
     estimated scf accuracy    <       0.00712251 Ry

     iteration #  9     ecut=   100.00 Ry     beta= 0.20
     CG style diagonalization
     c_bands:  1 eigenvalues not converged
     c_bands:  1 eigenvalues not converged
     c_bands:  1 eigenvalues not converged
     c_bands:  1 eigenvalues not converged
     ethr =  1.77E-05,  avg # of iterations =  3.3

     total cpu time spent up to now is      193.3 secs

     total energy              =    -432.83660334 Ry
     Harris-Foulkes estimate   =    -432.84661482 Ry
     estimated scf accuracy    <       0.01389992 Ry

     iteration # 10     ecut=   100.00 Ry     beta= 0.20
     CG style diagonalization
     c_bands:  1 eigenvalues not converged
     c_bands:  1 eigenvalues not converged
     c_bands:  1 eigenvalues not converged
     c_bands:  1 eigenvalues not converged
     c_bands:  1 eigenvalues not converged
     c_bands:  1 eigenvalues not converged
     c_bands:  1 eigenvalues not converged
     c_bands:  1 eigenvalues not converged
     c_bands:  1 eigenvalues not converged
     ethr =  1.77E-05,  avg # of iterations =  3.7

     total cpu time spent up to now is      210.7 secs

     total energy              =    -432.83855558 Ry
     Harris-Foulkes estimate   =    -432.83873863 Ry
     estimated scf accuracy    <       0.00031909 Ry

     iteration # 11     ecut=   100.00 Ry     beta= 0.20
     CG style diagonalization
     c_bands:  1 eigenvalues not converged
     c_bands:  1 eigenvalues not converged
     c_bands:  2 eigenvalues not converged
     c_bands:  1 eigenvalues not converged
     c_bands:  1 eigenvalues not converged
     c_bands:  1 eigenvalues not converged
     c_bands:  1 eigenvalues not converged
     c_bands:  1 eigenvalues not converged
     c_bands:  1 eigenvalues not converged
     c_bands:  1 eigenvalues not converged
     c_bands:  1 eigenvalues not converged
     c_bands:  1 eigenvalues not converged
     c_bands:  1 eigenvalues not converged
     c_bands:  1 eigenvalues not converged
     c_bands:  1 eigenvalues not converged
     c_bands:  1 eigenvalues not converged
     c_bands:  1 eigenvalues not converged
     c_bands:  1 eigenvalues not converged
     c_bands:  1 eigenvalues not converged
     c_bands:  1 eigenvalues not converged
     c_bands:  1 eigenvalues not converged
     c_bands:  1 eigenvalues not converged
     c_bands:  1 eigenvalues not converged
     c_bands:  1 eigenvalues not converged
     c_bands:  1 eigenvalues not converged
     c_bands:  1 eigenvalues not converged
     c_bands:  1 eigenvalues not converged
     c_bands:  1 eigenvalues not converged
     c_bands:  1 eigenvalues not converged
     c_bands:  1 eigenvalues not converged
     c_bands:  1 eigenvalues not converged
     c_bands:  1 eigenvalues not converged
     c_bands:  1 eigenvalues not converged
     c_bands:  1 eigenvalues not converged
     c_bands:  1 eigenvalues not converged
     c_bands:  1 eigenvalues not converged
     c_bands:  1 eigenvalues not converged
     c_bands:  1 eigenvalues not converged
     c_bands:  1 eigenvalues not converged
     c_bands:  1 eigenvalues not converged
     c_bands:  1 eigenvalues not converged
     c_bands:  1 eigenvalues not converged
     c_bands:  1 eigenvalues not converged
     c_bands:  1 eigenvalues not converged
     c_bands:  1 eigenvalues not converged
     c_bands:  1 eigenvalues not converged
     c_bands:  1 eigenvalues not converged
     c_bands:  1 eigenvalues not converged
     c_bands:  1 eigenvalues not converged
     c_bands:  2 eigenvalues not converged
     c_bands:  1 eigenvalues not converged
     c_bands:  1 eigenvalues not converged
     c_bands:  1 eigenvalues not converged
     c_bands:  1 eigenvalues not converged
     c_bands:  1 eigenvalues not converged
     c_bands:  1 eigenvalues not converged
     c_bands:  2 eigenvalues not converged
     c_bands:  1 eigenvalues not converged
     c_bands:  1 eigenvalues not converged
     c_bands:  1 eigenvalues not converged
     c_bands:  1 eigenvalues not converged
     c_bands:  1 eigenvalues not converged
     c_bands:  1 eigenvalues not converged
     c_bands:  1 eigenvalues not converged
     c_bands:  1 eigenvalues not converged
     c_bands:  1 eigenvalues not converged
     c_bands:  2 eigenvalues not converged
     c_bands:  1 eigenvalues not converged
     c_bands:  1 eigenvalues not converged
     c_bands:  1 eigenvalues not converged
     c_bands:  1 eigenvalues not converged
     c_bands:  1 eigenvalues not converged
     c_bands:  1 eigenvalues not converged
     c_bands:  1 eigenvalues not converged
     c_bands:  1 eigenvalues not converged
     c_bands:  1 eigenvalues not converged
     c_bands:  1 eigenvalues not converged
     c_bands:  1 eigenvalues not converged
     c_bands:  1 eigenvalues not converged
     c_bands:  2 eigenvalues not converged
     c_bands:  1 eigenvalues not converged
     c_bands:  1 eigenvalues not converged
     c_bands:  1 eigenvalues not converged
     c_bands:  1 eigenvalues not converged
     c_bands:  1 eigenvalues not converged
     c_bands:  1 eigenvalues not converged
     c_bands:  1 eigenvalues not converged
     c_bands:  1 eigenvalues not converged
     c_bands:  1 eigenvalues not converged
     c_bands:  1 eigenvalues not converged
     c_bands:  1 eigenvalues not converged
     c_bands:  1 eigenvalues not converged
     c_bands:  1 eigenvalues not converged
     c_bands:  1 eigenvalues not converged
     c_bands:  1 eigenvalues not converged
     c_bands:  1 eigenvalues not converged
     c_bands:  1 eigenvalues not converged
     c_bands:  1 eigenvalues not converged
     c_bands:  1 eigenvalues not converged
     c_bands:  1 eigenvalues not converged
     c_bands:  1 eigenvalues not converged
     c_bands:  1 eigenvalues not converged
     c_bands:  1 eigenvalues not converged
     c_bands:  1 eigenvalues not converged
     c_bands:  1 eigenvalues not converged
     c_bands:  1 eigenvalues not converged
     c_bands:  1 eigenvalues not converged
     c_bands:  2 eigenvalues not converged
     c_bands:  3 eigenvalues not converged
     c_bands:  1 eigenvalues not converged
     c_bands:  1 eigenvalues not converged
     c_bands:  2 eigenvalues not converged
     c_bands:  2 eigenvalues not converged
     c_bands:  2 eigenvalues not converged
     c_bands:  3 eigenvalues not converged
     c_bands:  2 eigenvalues not converged
     c_bands:  2 eigenvalues not converged
     ethr =  8.18E-07,  avg # of iterations =  6.5

     total cpu time spent up to now is      241.3 secs

     total energy              =    -432.83982735 Ry
     Harris-Foulkes estimate   =    -432.83989934 Ry
     estimated scf accuracy    <       0.00038904 Ry

     iteration # 12     ecut=   100.00 Ry     beta= 0.20
     CG style diagonalization
     c_bands:  1 eigenvalues not converged
     c_bands:  1 eigenvalues not converged
     c_bands:  1 eigenvalues not converged
     c_bands:  1 eigenvalues not converged
     c_bands:  1 eigenvalues not converged
     c_bands:  1 eigenvalues not converged
     c_bands:  1 eigenvalues not converged
     c_bands:  1 eigenvalues not converged
     c_bands:  1 eigenvalues not converged
     c_bands:  1 eigenvalues not converged
     c_bands:  1 eigenvalues not converged
     c_bands:  1 eigenvalues not converged
     c_bands:  1 eigenvalues not converged
     c_bands:  1 eigenvalues not converged
     c_bands:  1 eigenvalues not converged
     c_bands:  1 eigenvalues not converged
     c_bands:  1 eigenvalues not converged
     c_bands:  1 eigenvalues not converged
     c_bands:  1 eigenvalues not converged
     c_bands:  1 eigenvalues not converged
     c_bands:  1 eigenvalues not converged
     c_bands:  1 eigenvalues not converged
     c_bands:  1 eigenvalues not converged
     c_bands:  1 eigenvalues not converged
     c_bands:  1 eigenvalues not converged
     c_bands:  1 eigenvalues not converged
     c_bands:  1 eigenvalues not converged
     c_bands:  1 eigenvalues not converged
     c_bands:  1 eigenvalues not converged
     c_bands:  2 eigenvalues not converged
     c_bands:  1 eigenvalues not converged
     c_bands:  1 eigenvalues not converged
     c_bands:  1 eigenvalues not converged
     c_bands:  1 eigenvalues not converged
     c_bands:  1 eigenvalues not converged
     c_bands:  1 eigenvalues not converged
     c_bands:  1 eigenvalues not converged
     c_bands:  1 eigenvalues not converged
     c_bands:  2 eigenvalues not converged
     c_bands:  1 eigenvalues not converged
     c_bands:  1 eigenvalues not converged
     c_bands:  1 eigenvalues not converged
     c_bands:  1 eigenvalues not converged
     c_bands:  1 eigenvalues not converged
     c_bands:  1 eigenvalues not converged
     c_bands:  1 eigenvalues not converged
     c_bands:  1 eigenvalues not converged
     c_bands:  1 eigenvalues not converged
     c_bands:  1 eigenvalues not converged
     c_bands:  1 eigenvalues not converged
     c_bands:  1 eigenvalues not converged
     c_bands:  1 eigenvalues not converged
     c_bands:  1 eigenvalues not converged
     c_bands:  1 eigenvalues not converged
     c_bands:  1 eigenvalues not converged
     c_bands:  1 eigenvalues not converged
     c_bands:  1 eigenvalues not converged
     c_bands:  1 eigenvalues not converged
     c_bands:  1 eigenvalues not converged
     c_bands:  1 eigenvalues not converged
     ethr =  8.18E-07,  avg # of iterations =  4.4

     total cpu time spent up to now is      262.1 secs

     total energy              =    -432.84023230 Ry
     Harris-Foulkes estimate   =    -432.84018597 Ry
     estimated scf accuracy    <       0.00069499 Ry

     iteration # 13     ecut=   100.00 Ry     beta= 0.20
     CG style diagonalization
     c_bands:  1 eigenvalues not converged
     c_bands:  1 eigenvalues not converged
     c_bands:  1 eigenvalues not converged
     c_bands:  1 eigenvalues not converged
     c_bands:  2 eigenvalues not converged
     c_bands:  1 eigenvalues not converged
     c_bands:  1 eigenvalues not converged
     c_bands:  1 eigenvalues not converged
     c_bands:  1 eigenvalues not converged
     c_bands:  1 eigenvalues not converged
     c_bands:  1 eigenvalues not converged
     c_bands:  1 eigenvalues not converged
     c_bands:  1 eigenvalues not converged
     c_bands:  1 eigenvalues not converged
     c_bands:  1 eigenvalues not converged
     c_bands:  1 eigenvalues not converged
     c_bands:  1 eigenvalues not converged
     c_bands:  3 eigenvalues not converged
     c_bands:  1 eigenvalues not converged
     c_bands:  1 eigenvalues not converged
     c_bands:  2 eigenvalues not converged
     c_bands:  1 eigenvalues not converged
     c_bands:  1 eigenvalues not converged
     c_bands:  1 eigenvalues not converged
     c_bands:  1 eigenvalues not converged
     c_bands:  1 eigenvalues not converged
     c_bands:  1 eigenvalues not converged
     c_bands:  1 eigenvalues not converged
     c_bands:  1 eigenvalues not converged
     c_bands:  1 eigenvalues not converged
     c_bands:  1 eigenvalues not converged
     c_bands:  1 eigenvalues not converged
     c_bands:  1 eigenvalues not converged
     ethr =  8.18E-07,  avg # of iterations =  3.7

     total cpu time spent up to now is      279.8 secs

     total energy              =    -432.84063638 Ry
     Harris-Foulkes estimate   =    -432.84026186 Ry
     estimated scf accuracy    <       0.00081699 Ry

     iteration # 14     ecut=   100.00 Ry     beta= 0.20
     CG style diagonalization
     c_bands:  1 eigenvalues not converged
     c_bands:  1 eigenvalues not converged
     c_bands:  1 eigenvalues not converged
     c_bands:  1 eigenvalues not converged
     c_bands:  1 eigenvalues not converged
     c_bands:  1 eigenvalues not converged
     c_bands:  1 eigenvalues not converged
     c_bands:  1 eigenvalues not converged
     c_bands:  1 eigenvalues not converged
     c_bands:  1 eigenvalues not converged
     c_bands:  1 eigenvalues not converged
     c_bands:  1 eigenvalues not converged
     c_bands:  1 eigenvalues not converged
     c_bands:  1 eigenvalues not converged
     c_bands:  1 eigenvalues not converged
     c_bands:  1 eigenvalues not converged
     c_bands:  1 eigenvalues not converged
     c_bands:  1 eigenvalues not converged
     c_bands:  1 eigenvalues not converged
     c_bands:  1 eigenvalues not converged
     c_bands:  1 eigenvalues not converged
     ethr =  8.18E-07,  avg # of iterations =  3.8

     total cpu time spent up to now is      297.9 secs

     total energy              =    -432.83974238 Ry
     Harris-Foulkes estimate   =    -432.84071626 Ry
     estimated scf accuracy    <       0.00178426 Ry

     iteration # 15     ecut=   100.00 Ry     beta= 0.20
     CG style diagonalization
     c_bands:  1 eigenvalues not converged
     c_bands:  1 eigenvalues not converged
     c_bands:  1 eigenvalues not converged
     c_bands:  1 eigenvalues not converged
     c_bands:  1 eigenvalues not converged
     c_bands:  1 eigenvalues not converged
     c_bands:  1 eigenvalues not converged
     c_bands:  1 eigenvalues not converged
     c_bands:  1 eigenvalues not converged
     c_bands:  1 eigenvalues not converged
     c_bands:  1 eigenvalues not converged
     ethr =  8.18E-07,  avg # of iterations =  4.3

     total cpu time spent up to now is      318.2 secs

     total energy              =    -432.83995053 Ry
     Harris-Foulkes estimate   =    -432.83995537 Ry
     estimated scf accuracy    <       0.00017410 Ry

     iteration # 16     ecut=   100.00 Ry     beta= 0.20
     CG style diagonalization
     c_bands:  1 eigenvalues not converged
     c_bands:  1 eigenvalues not converged
     c_bands:  1 eigenvalues not converged
     c_bands:  1 eigenvalues not converged
     c_bands:  1 eigenvalues not converged
     c_bands:  1 eigenvalues not converged
     ethr =  4.46E-07,  avg # of iterations =  3.4

     total cpu time spent up to now is      334.3 secs

     total energy              =    -432.84010704 Ry
     Harris-Foulkes estimate   =    -432.83997042 Ry
     estimated scf accuracy    <       0.00014277 Ry

     iteration # 17     ecut=   100.00 Ry     beta= 0.20
     CG style diagonalization
     c_bands:  1 eigenvalues not converged
     c_bands:  1 eigenvalues not converged
     c_bands:  1 eigenvalues not converged
     c_bands:  1 eigenvalues not converged
     ethr =  3.66E-07,  avg # of iterations =  3.5

     total cpu time spent up to now is      350.6 secs

     total energy              =    -432.83999872 Ry
     Harris-Foulkes estimate   =    -432.84014009 Ry
     estimated scf accuracy    <       0.00044625 Ry

     iteration # 18     ecut=   100.00 Ry     beta= 0.20
     CG style diagonalization
     c_bands:  1 eigenvalues not converged
     c_bands:  1 eigenvalues not converged
     ethr =  3.66E-07,  avg # of iterations =  3.4

     total cpu time spent up to now is      367.0 secs

     total energy              =    -432.84005855 Ry
     Harris-Foulkes estimate   =    -432.84001664 Ry
     estimated scf accuracy    <       0.00021317 Ry

     iteration # 19     ecut=   100.00 Ry     beta= 0.20
     CG style diagonalization
     c_bands:  1 eigenvalues not converged
     ethr =  3.66E-07,  avg # of iterations =  3.1

     total cpu time spent up to now is      381.1 secs

     total energy              =    -432.84006946 Ry
     Harris-Foulkes estimate   =    -432.84006207 Ry
     estimated scf accuracy    <       0.00028787 Ry

     iteration # 20     ecut=   100.00 Ry     beta= 0.20
     CG style diagonalization
     ethr =  3.66E-07,  avg # of iterations =  3.1

     total cpu time spent up to now is      395.5 secs

     total energy              =    -432.83987402 Ry
     Harris-Foulkes estimate   =    -432.84007118 Ry
     estimated scf accuracy    <       0.00029457 Ry

     iteration # 21     ecut=   100.00 Ry     beta= 0.20
     CG style diagonalization
     c_bands:  1 eigenvalues not converged
     ethr =  3.66E-07,  avg # of iterations =  3.8

     total cpu time spent up to now is      413.6 secs

     total energy              =    -432.83995220 Ry
     Harris-Foulkes estimate   =    -432.83994724 Ry
     estimated scf accuracy    <       0.00001581 Ry

     iteration # 22     ecut=   100.00 Ry     beta= 0.20
     CG style diagonalization
     c_bands:  1 eigenvalues not converged
     ethr =  4.05E-08,  avg # of iterations =  6.3

     total cpu time spent up to now is      445.0 secs

     total energy              =    -432.83997310 Ry
     Harris-Foulkes estimate   =    -432.84003511 Ry
     estimated scf accuracy    <       0.00017043 Ry

     iteration # 23     ecut=   100.00 Ry     beta= 0.20
     CG style diagonalization
     ethr =  4.05E-08,  avg # of iterations =  4.0

     total cpu time spent up to now is      463.7 secs

     total energy              =    -432.83995782 Ry
     Harris-Foulkes estimate   =    -432.83998324 Ry
     estimated scf accuracy    <       0.00006245 Ry

     iteration # 24     ecut=   100.00 Ry     beta= 0.20
     CG style diagonalization
     ethr =  4.05E-08,  avg # of iterations =  3.9

     total cpu time spent up to now is      482.6 secs

     total energy              =    -432.83996346 Ry
     Harris-Foulkes estimate   =    -432.83996575 Ry
     estimated scf accuracy    <       0.00001062 Ry

     iteration # 25     ecut=   100.00 Ry     beta= 0.20
     CG style diagonalization
     ethr =  2.72E-08,  avg # of iterations =  3.9

     total cpu time spent up to now is      501.0 secs

     total energy              =    -432.83996938 Ry
     Harris-Foulkes estimate   =    -432.83996918 Ry
     estimated scf accuracy    <       0.00000160 Ry

     iteration # 26     ecut=   100.00 Ry     beta= 0.20
     CG style diagonalization
     ethr =  4.10E-09,  avg # of iterations =  4.3

     total cpu time spent up to now is      522.7 secs

     total energy              =    -432.83997051 Ry
     Harris-Foulkes estimate   =    -432.83997079 Ry
     estimated scf accuracy    <       0.00000143 Ry

     iteration # 27     ecut=   100.00 Ry     beta= 0.20
     CG style diagonalization
     ethr =  3.66E-09,  avg # of iterations =  3.4

     total cpu time spent up to now is      539.9 secs

     total energy              =    -432.83997022 Ry
     Harris-Foulkes estimate   =    -432.83997082 Ry
     estimated scf accuracy    <       0.00000081 Ry

     iteration # 28     ecut=   100.00 Ry     beta= 0.20
     CG style diagonalization
     c_bands:  1 eigenvalues not converged
     ethr =  2.07E-09,  avg # of iterations =  4.2

     total cpu time spent up to now is      559.9 secs

     total energy              =    -432.83997055 Ry
     Harris-Foulkes estimate   =    -432.83997071 Ry
     estimated scf accuracy    <       0.00000019 Ry

     iteration # 29     ecut=   100.00 Ry     beta= 0.20
     CG style diagonalization
     ethr =  4.94E-10,  avg # of iterations =  4.4

     total cpu time spent up to now is      581.0 secs

     total energy              =    -432.83997079 Ry
     Harris-Foulkes estimate   =    -432.83997078 Ry
     estimated scf accuracy    <       0.00000002 Ry

     iteration # 30     ecut=   100.00 Ry     beta= 0.20
     CG style diagonalization
     ethr =  5.49E-11,  avg # of iterations =  5.3

     total cpu time spent up to now is      606.5 secs

     total energy              =    -432.83997082 Ry
     Harris-Foulkes estimate   =    -432.83997087 Ry
     estimated scf accuracy    <       0.00000017 Ry

     iteration # 31     ecut=   100.00 Ry     beta= 0.20
     CG style diagonalization
     ethr =  5.49E-11,  avg # of iterations =  3.8

     total cpu time spent up to now is      624.9 secs

     total energy              =    -432.83997078 Ry
     Harris-Foulkes estimate   =    -432.83997082 Ry
     estimated scf accuracy    <       0.00000008 Ry

     iteration # 32     ecut=   100.00 Ry     beta= 0.20
     CG style diagonalization
     ethr =  5.49E-11,  avg # of iterations =  4.0

     total cpu time spent up to now is      644.2 secs

     total energy              =    -432.83997080 Ry
     Harris-Foulkes estimate   =    -432.83997080 Ry
     estimated scf accuracy    <          1.8E-09 Ry

     iteration # 33     ecut=   100.00 Ry     beta= 0.20
     CG style diagonalization
     ethr =  4.49E-12,  avg # of iterations =  5.2

     total cpu time spent up to now is      669.3 secs

     total energy              =    -432.83997080 Ry
     Harris-Foulkes estimate   =    -432.83997080 Ry
     estimated scf accuracy    <          1.0E-09 Ry

     iteration # 34     ecut=   100.00 Ry     beta= 0.20
     CG style diagonalization
     ethr =  2.65E-12,  avg # of iterations =  3.9

     total cpu time spent up to now is      687.8 secs

     total energy              =    -432.83997080 Ry
     Harris-Foulkes estimate   =    -432.83997080 Ry
     estimated scf accuracy    <          1.7E-09 Ry

     iteration # 35     ecut=   100.00 Ry     beta= 0.20
     CG style diagonalization
     ethr =  2.65E-12,  avg # of iterations =  3.4

     total cpu time spent up to now is      703.7 secs

     total energy              =    -432.83997080 Ry
     Harris-Foulkes estimate   =    -432.83997080 Ry
     estimated scf accuracy    <          2.9E-09 Ry

     iteration # 36     ecut=   100.00 Ry     beta= 0.20
     CG style diagonalization
     ethr =  2.65E-12,  avg # of iterations =  4.2

     total cpu time spent up to now is      724.5 secs

     total energy              =    -432.83997080 Ry
     Harris-Foulkes estimate   =    -432.83997080 Ry
     estimated scf accuracy    <          1.9E-10 Ry

     iteration # 37     ecut=   100.00 Ry     beta= 0.20
     CG style diagonalization
     ethr =  4.91E-13,  avg # of iterations =  4.6

     total cpu time spent up to now is      746.3 secs

     total energy              =    -432.83997080 Ry
     Harris-Foulkes estimate   =    -432.83997080 Ry
     estimated scf accuracy    <          1.3E-10 Ry

     iteration # 38     ecut=   100.00 Ry     beta= 0.20
     CG style diagonalization
     ethr =  3.34E-13,  avg # of iterations =  4.0

     total cpu time spent up to now is      765.3 secs

     total energy              =    -432.83997080 Ry
     Harris-Foulkes estimate   =    -432.83997080 Ry
     estimated scf accuracy    <          5.8E-11 Ry

     iteration # 39     ecut=   100.00 Ry     beta= 0.20
     CG style diagonalization
     ethr =  1.49E-13,  avg # of iterations =  4.2

     total cpu time spent up to now is      785.1 secs

     total energy              =    -432.83997080 Ry
     Harris-Foulkes estimate   =    -432.83997080 Ry
     estimated scf accuracy    <          1.6E-11 Ry

     iteration # 40     ecut=   100.00 Ry     beta= 0.20
     CG style diagonalization
     ethr =  1.00E-13,  avg # of iterations =  3.7

     total cpu time spent up to now is      802.5 secs

     total energy              =    -432.83997080 Ry
     Harris-Foulkes estimate   =    -432.83997080 Ry
     estimated scf accuracy    <          1.4E-11 Ry

     iteration # 41     ecut=   100.00 Ry     beta= 0.20
     CG style diagonalization
     ethr =  1.00E-13,  avg # of iterations =  3.3

     total cpu time spent up to now is      818.0 secs

     total energy              =    -432.83997080 Ry
     Harris-Foulkes estimate   =    -432.83997080 Ry
     estimated scf accuracy    <          2.0E-12 Ry

     iteration # 42     ecut=   100.00 Ry     beta= 0.20
     CG style diagonalization
     ethr =  1.00E-13,  avg # of iterations =  3.0

     total cpu time spent up to now is      831.5 secs

     End of self-consistent calculation

     Number of k-points >= 100: set verbosity='high' to print the bands.

     the Fermi energy is    24.1872 ev

!    total energy              =    -432.83997080 Ry
     Harris-Foulkes estimate   =    -432.83997080 Ry
     estimated scf accuracy    <          6.1E-13 Ry

     total all-electron energy =     -8148.234185 Ry

     The total energy is the sum of the following terms:

     one-electron contribution =      47.08242683 Ry
     hartree contribution      =      13.59561229 Ry
     xc contribution           =     -48.65118916 Ry
     ewald contribution        =    -183.82930163 Ry
     one-center paw contrib.   =    -261.03758451 Ry
     smearing contrib. (-TS)   =       0.00006537 Ry

     convergence has been achieved in  42 iterations

     Writing output data file CaYH20.save/
 
     init_run     :      5.57s CPU      5.93s WALL (       1 calls)
     electrons    :    752.08s CPU    824.10s WALL (       1 calls)

     Called by init_run:
     wfcinit      :      5.19s CPU      5.52s WALL (       1 calls)
     potinit      :      0.16s CPU      0.17s WALL (       1 calls)
     hinit0       :      0.17s CPU      0.17s WALL (       1 calls)

     Called by electrons:
     c_bands      :    698.47s CPU    766.74s WALL (      42 calls)
     sum_band     :     48.56s CPU     52.07s WALL (      42 calls)
     v_of_rho     :      0.26s CPU      0.26s WALL (      43 calls)
     newd         :      0.86s CPU      1.02s WALL (      43 calls)
     PAW_pot      :      3.84s CPU      3.88s WALL (      43 calls)
     mix_rho      :      0.15s CPU      0.16s WALL (      42 calls)

     Called by c_bands:
     init_us_2    :      4.20s CPU      4.63s WALL (   41310 calls)
     ccgdiagg     :    572.80s CPU    632.08s WALL (   20412 calls)
     wfcrot       :    126.01s CPU    134.70s WALL (   20412 calls)

     Called by sum_band:
     sum_band:bec :      0.88s CPU      0.94s WALL (   20412 calls)
     addusdens    :      0.87s CPU      0.89s WALL (      42 calls)

     Called by *cgdiagg:
     h_psi        :    413.99s CPU    455.16s WALL ( 1547974 calls)
     s_psi        :     34.56s CPU     38.29s WALL ( 3075536 calls)
     cdiaghg      :     25.46s CPU     26.39s WALL (   20412 calls)

     Called by h_psi:
     h_psi:pot    :    407.23s CPU    447.65s WALL ( 1547974 calls)
     h_psi:calbec :     59.39s CPU     65.20s WALL ( 1547974 calls)
     vloc_psi     :    317.56s CPU    349.08s WALL ( 1547974 calls)
     add_vuspsi   :     18.76s CPU     20.74s WALL ( 1547974 calls)
     h_1psi       :    366.66s CPU    404.70s WALL ( 1527562 calls)

     General routines
     calbec       :     98.24s CPU    108.12s WALL ( 3095948 calls)
     fft          :      0.23s CPU      0.24s WALL (     558 calls)
     ffts         :      0.02s CPU      0.02s WALL (      85 calls)
     fftw         :    334.26s CPU    366.35s WALL ( 4539368 calls)
     interpolate  :      0.03s CPU      0.03s WALL (      43 calls)
 
     Parallel routines
     fft_scatt_xy :     32.60s CPU     35.82s WALL ( 4540011 calls)
     fft_scatt_yz :    207.04s CPU    226.93s WALL ( 4540011 calls)
 
     PWSCF        : 12m42.02s CPU    13m57.23s WALL

 
   This run was terminated on:  15: 0:21  22Oct2025            

=------------------------------------------------------------------------------=
   JOB DONE.
=------------------------------------------------------------------------------=
