sys                                     
   1.0000000000000000     
     2.963800    0.000000    0.000000
     0.000000    2.963800    0.000000
     0.000000    0.000000    4.186510
   Ca   Y    H 
     1     1    20
Direct
  1.000000  1.000000  0.999997
  0.500000  0.500000  0.499999
  0.256400  0.500000  0.115800
  0.743600  0.500000  0.115800
  0.500000  0.256400  0.115800
  0.500000  0.743600  0.115800
  0.743600  0.500000  0.884198
  0.256400  0.500000  0.884198
  0.500000  0.256400  0.884198
  0.500000  0.743600  0.884198
  1.000000  0.500000  0.758298
  0.500000  1.000000  0.758298
  1.000000  0.500000  0.241699
  0.500000  1.000000  0.241699
  0.237300  1.000000  0.373199
  0.762700  1.000000  0.373199
  1.000000  0.237300  0.373199
  1.000000  0.762700  0.373199
  0.762700  1.000000  0.626798
  0.237300  1.000000  0.626798
  1.000000  0.237300  0.626798
  1.000000  0.762700  0.626798

   56   56   72
 0.28438371539E+03 0.28227192461E+03 0.27602726438E+03 0.26591497197E+03 0.25235571647E+03
 0.23589563194E+03 0.21716871087E+03 0.19685588277E+03 0.17564568733E+03 0.15420098561E+03
 0.13313445813E+03 0.11299299008E+03 0.94248312380E+02 0.77289628443E+02 0.62414329029E+02
 0.49815444976E+02 0.39568189539E+02 0.31620925333E+02 0.25796484984E+02 0.21807509735E+02
 0.19285396155E+02 0.17818542324E+02 0.17025123517E+02 0.16687185601E+02 0.16642852742E+02
 0.16753218804E+02 0.16908971968E+02 0.17032787347E+02 0.17079063344E+02 0.17032787352E+02
 0.16908971978E+02 0.16753218820E+02 0.16642852763E+02 0.16687185627E+02 0.17025123550E+02
 0.17818542371E+02 0.19285401150E+02 0.21807529566E+02 0.25796530098E+02 0.31621005928E+02
 0.39568314733E+02 0.49815622005E+02 0.62414562539E+02 0.77289919928E+02 0.94248659807E+02
 0.11299338774E+03 0.13313489672E+03 0.15420145256E+03 0.17564616733E+03 0.19685635856E+03
 0.21716916413E+03 0.23589604427E+03 0.25235607049E+03 0.26591525231E+03 0.27602745861E+03
 0.28227202398E+03 0.28227192461E+03 0.28017408526E+03 0.27397079918E+03 0.26392586963E+03
 0.25045759694E+03 0.23410890096E+03 0.21550990585E+03 0.19533732488E+03 0.17427549049E+03
 0.15298339923E+03 0.13207041389E+03 0.11208067545E+03 0.93483603095E+02 0.76666286495E+02
 0.61924010184E+02 0.49447664460E+02 0.39310430324E+02 0.31459032363E+02 0.25715367375E+02
 0.21792040323E+02 0.19321321122E+02 0.17893212311E+02 0.17130171748E+02 0.16817744783E+02
 0.16794303607E+02 0.16921049256E+02 0.17088637690E+02 0.17219631052E+02 0.17268315047E+02
 0.17219631057E+02 0.17088637700E+02 0.16921049271E+02 0.16794303628E+02 0.16817744810E+02
 0.17130171780E+02 0.17893212350E+02 0.19321325869E+02 0.21792059596E+02 0.25715411560E+02
 0.31459111607E+02 0.39310553711E+02 0.49447839214E+02 0.61924240960E+02 0.76666574821E+02
 0.93483946999E+02 0.11208106931E+03 0.13207084849E+03 0.15298386211E+03 0.17427596648E+03
 0.19533779684E+03 0.21551035556E+03 0.23410931015E+03 0.25045794833E+03 0.26392614792E+03
 0.27397099201E+03 0.28017418392E+03 0.27602726438E+03 0.27397079918E+03 0.26789019379E+03
 0.25804494321E+03 0.24484626136E+03 0.22882749003E+03 0.21060728352E+03 0.19084988880E+03
 0.17022723372E+03 0.14938692336E+03 0.12892852635E+03 0.10938804539E+03 0.91227985664E+02
 0.74829092178E+02 0.60480331706E+02 0.48366204927E+02 0.38553891399E+02 0.30985344686E+02
 0.25479814304E+02 0.21749945474E+02 0.19430732691E+02 0.18117036567E+02 0.17444717472E+02
 0.17208843111E+02 0.17248420186E+02 0.17424824899E+02 0.17628451239E+02 0.17781370061E+02
 0.17837421477E+02 0.17781370066E+02 0.17628451249E+02 0.17424824914E+02 0.17248420207E+02
 0.17208843138E+02 0.17444717504E+02 0.18117036605E+02 0.19430736738E+02 0.21749963134E+02
 0.25479855778E+02 0.30985419973E+02 0.38554009482E+02 0.48366372986E+02 0.60480554427E+02
 0.74829371189E+02 0.91228319166E+02 0.10938842800E+03 0.12892894914E+03 0.14938737422E+03
 0.17022769783E+03 0.19085034938E+03 0.21060772272E+03 0.22882788991E+03 0.24484660492E+03
 0.25804521541E+03 0.26789038245E+03 0.27397089572E+03 0.26591497197E+03 0.26392586963E+03
 0.25804494321E+03 0.24852451687E+03 0.23576408590E+03 0.22028128096E+03 0.20267608089E+03
 0.18359256808E+03 0.16368268636E+03 0.14357570279E+03 0.12385535506E+03 0.10504435785E+03
 0.87593780079E+02 0.71873768431E+02 0.58162759835E+02 0.46634743254E+02 0.37347206299E+02
 0.30234614443E+02 0.25112335808E+02 0.21693560545E+02 0.19618159035E+02 0.18489383112E+02
 0.17966915714E+02 0.17858656272E+02 0.18004339544E+02 0.18265162155E+02 0.18530549129E+02
 0.18721261692E+02 0.18790050911E+02 0.18721261697E+02 0.18530549140E+02 0.18265162170E+02
 0.18004339564E+02 0.17858656298E+02 0.17966915745E+02 0.18489383149E+02 0.19618162055E+02
 0.21693575709E+02 0.25112373016E+02 0.30234683447E+02 0.37347315911E+02 0.46634900586E+02
 0.58162969609E+02 0.71874032437E+02 0.87594096792E+02 0.10504472226E+03 0.12385575874E+03
 0.14357613414E+03 0.16368313117E+03 0.18359301017E+03 0.20267650298E+03 0.22028166566E+03
 0.23576441670E+03 0.24852477913E+03 0.25804512506E+03 0.26392596271E+03 0.25235571647E+03
 0.25045759694E+03 0.24484626136E+03 0.23576408590E+03 0.22359444502E+03 0.20883356784E+03
 0.19205624330E+03 0.17387957034E+03 0.15492887770E+03 0.13580900708E+03 0.11708245954E+03
 0.99253855050E+02 0.82758398899E+02 0.67951364499E+02 0.55096486346E+02 0.44353344556E+02
 0.35766523484E+02 0.29260960667E+02 0.24647651296E+02 0.21641500721E+02 0.19889856631E+02
 0.19008903859E+02 0.18693327915E+02 0.18763581262E+02 0.19059768049E+02 0.19441904770E+02
 0.19797011227E+02 0.20043047378E+02 0.20130555927E+02 0.20043047383E+02 0.19797011237E+02
 0.19441904785E+02 0.19059768069E+02 0.18763581287E+02 0.18693327945E+02 0.19008903895E+02
 0.19889858492E+02 0.21641512779E+02 0.24647683036E+02 0.29261021502E+02 0.35766621991E+02
 0.44353487738E+02 0.55096678969E+02 0.67951608554E+02 0.82758693222E+02 0.99254195142E+02
 0.11708283760E+03 0.13580941225E+03 0.15492929654E+03 0.17387998749E+03 0.19205664229E+03
 0.20883393202E+03 0.22359475853E+03 0.23576433469E+03 0.24484643397E+03 0.25045768533E+03
 0.23589563194E+03 0.23410890096E+03 0.22882749003E+03 0.22028128096E+03 0.20883356784E+03
 0.19495420162E+03 0.17918723609E+03 0.16211711003E+03 0.14433706587E+03 0.12642242983E+03
 0.10890975970E+03 0.92281133580E+02 0.76951555790E+02 0.63257164900E+02 0.51442930159E+02
 0.41650512013E+02 0.33909057177E+02 0.28132834687E+02 0.24128925735E+02 0.21615937338E+02
 0.20251827327E+02 0.19672690159E+02 0.19617776317E+02 0.19916589100E+02 0.20408704837E+02
 0.20951190549E+02 0.21426354017E+02 0.21747055511E+02 0.21859937901E+02 0.21747055516E+02
 0.21426354027E+02 0.20951190563E+02 0.20408704856E+02 0.19916589124E+02 0.19617776346E+02
 0.19672690193E+02 0.20251828141E+02 0.21615946020E+02 0.24128951257E+02 0.28132886034E+02
 0.33909142623E+02 0.41650638413E+02 0.51443102315E+02 0.63257385028E+02 0.76951823151E+02
 0.92281444280E+02 0.10891010670E+03 0.12642280316E+03 0.14433745306E+03 0.16211749671E+03
 0.17918760679E+03 0.19495454062E+03 0.20883386013E+03 0.22028151317E+03 0.22882765129E+03
 0.23410898357E+03 0.21716871087E+03 0.21550990585E+03 0.21060728352E+03 0.20267608089E+03
 0.19205624330E+03 0.17918723609E+03 0.16457802471E+03 0.14877600190E+03 0.13233807080E+03
 0.11580593433E+03 0.99686140206E+02 0.84434084006E+02 0.70440330064E+02 0.58017695758E+02
 0.47388598791E+02 0.38673835904E+02 0.31885472601E+02 0.26927030413E+02 0.23603196832E+02
 0.21639122119E+02 0.20707021061E+02 0.20474534836E+02 0.20728904563E+02 0.21303811489E+02
 0.22036893428E+02 0.22779761493E+02 0.23406863602E+02 0.23822876041E+02 0.23968289327E+02
 0.23822876046E+02 0.23406863611E+02 0.22779761507E+02 0.22036893446E+02 0.21303811512E+02
 0.20728904590E+02 0.20474534868E+02 0.20707021207E+02 0.21639127539E+02 0.23603215896E+02
 0.26927071600E+02 0.31885543814E+02 0.38673943807E+02 0.47388748197E+02 0.58017889119E+02
 0.70440567099E+02 0.84434361496E+02 0.99686451971E+02 0.11580627141E+03 0.13233842183E+03
 0.14877635368E+03 0.16457836293E+03 0.17918754612E+03 0.19205651111E+03 0.20267629396E+03
 0.21060743164E+03 0.21550998178E+03 0.19685588277E+03 0.19533732488E+03 0.19084988880E+03
 0.18359256808E+03 0.17387957034E+03 0.16211711003E+03 0.14877600190E+03 0.13436349086E+03
 0.11939700787E+03 0.10438135125E+03 0.89789489599E+02 0.76046230215E+02 0.63513591642E+02
 0.52477114762E+02 0.43133363450E+02 0.35580139604E+02 0.29811838421E+02 0.25722312683E+02
 0.23116414357E+02 0.21729438264E+02 0.21252003449E+02 0.21402208265E+02 0.22006332230E+02
 0.22899236382E+02 0.23914867805E+02 0.24896375039E+02 0.25706616671E+02 0.26238447151E+02
 0.26423551148E+02 0.26238447155E+02 0.25706616679E+02 0.24896375051E+02 0.23914867821E+02
 0.22899236404E+02 0.22006332256E+02 0.21402208295E+02 0.21252003484E+02 0.21729440924E+02
 0.23116427251E+02 0.25722343710E+02 0.29811895055E+02 0.35580228266E+02 0.43133488932E+02
 0.52477279740E+02 0.63513796305E+02 0.76046472051E+02 0.89789763351E+02 0.10438164905E+03
 0.11939731958E+03 0.13436380456E+03 0.14877630455E+03 0.16211738824E+03 0.17387981122E+03
 0.18359276006E+03 0.19085002241E+03 0.19533739343E+03 0.17564568733E+03 0.17427549049E+03
 0.17022723372E+03 0.16368268636E+03 0.15492887770E+03 0.14433706587E+03 0.13233807080E+03
 0.11939700787E+03 0.10598959004E+03 0.92581024623E+02 0.79607472101E+02 0.67459448439E+02
 0.56466567488E+02 0.46883595850E+02 0.38878700099E+02 0.32525590299E+02 0.27801580831E+02
 0.24593052222E+02 0.22708457487E+02 0.21897352322E+02 0.21877165352E+02 0.22434127414E+02
 0.23415991827E+02 0.24658336154E+02 0.25989655589E+02 0.27241596480E+02 0.28261642327E+02
 0.28927117483E+02 0.29158186575E+02 0.28927117487E+02 0.28261642335E+02 0.27241596492E+02
 0.25989655605E+02 0.24658336174E+02 0.23415991851E+02 0.22434127443E+02 0.21877165385E+02
 0.21897353088E+02 0.22708465003E+02 0.24593073749E+02 0.27801623355E+02 0.32525659947E+02
 0.38878801601E+02 0.46883732072E+02 0.56466739077E+02 0.67459653596E+02 0.79607706514E+02
 0.92581281569E+02 0.10598986066E+03 0.11939728161E+03 0.13233833601E+03 0.14433731050E+03
 0.15492909008E+03 0.16368285597E+03 0.17022735194E+03 0.17427555119E+03 0.15420098561E+03
 0.15298339923E+03 0.14938692336E+03 0.14357570279E+03 0.13580900708E+03 0.12642242983E+03
 0.11580593433E+03 0.10438135125E+03 0.92581024623E+02 0.80828260287E+02 0.69519422163E+02
 0.59007299589E+02 0.49585699163E+02 0.41475862888E+02 0.34816051399E+02 0.29655989692E+02
 0.25957679087E+02 0.23603170138E+02 0.22408517100E+02 0.22141793728E+02 0.22567239376E+02
 0.23536354577E+02 0.24906038897E+02 0.26512531122E+02 0.28177572143E+02 0.29718904456E+02
 0.30965565311E+02 0.31776293249E+02 0.32057474499E+02 0.31776293253E+02 0.30965565318E+02
 0.29718904466E+02 0.28177572158E+02 0.26512531141E+02 0.24906038920E+02 0.23536354603E+02
 0.22567239406E+02 0.22141793764E+02 0.22408520469E+02 0.23603183415E+02 0.25957708717E+02
 0.29656041456E+02 0.34816129916E+02 0.41475971171E+02 0.49585838279E+02 0.59007468427E+02
 0.69519617346E+02 0.80828476240E+02 0.92581253798E+02 0.10438158450E+03 0.11580616145E+03
 0.12642264018E+03 0.13580919028E+03 0.14357584945E+03 0.14938702576E+03 0.15298345186E+03
 0.13313445813E+03 0.13207041389E+03 0.12892852635E+03 0.12385535506E+03 0.11708245954E+03
 0.10890975970E+03 0.99686140206E+02 0.89789489599E+02 0.79607472101E+02 0.69519422163E+02
 0.59879191735E+02 0.50998868408E+02 0.43133793598E+02 0.36469980062E+02 0.31115518734E+02
 0.27097507360E+02 0.24365433008E+02 0.22800784015E+02 0.22231351353E+02 0.22450509101E+02
 0.23297776952E+02 0.24661283245E+02 0.26405297293E+02 0.28367152287E+02 0.30361518547E+02
 0.32191244669E+02 0.33665472858E+02 0.34622818787E+02 0.34954714183E+02 0.34622818790E+02
 0.33665472865E+02 0.32191244679E+02 0.30361518560E+02 0.28367152304E+02 0.26405297313E+02
 0.24661283269E+02 0.23297776980E+02 0.22450509133E+02 0.22231352154E+02 0.22800790779E+02
 0.24365451597E+02 0.27097543162E+02 0.31115576199E+02 0.36470062296E+02 0.43133902031E+02
 0.50999002568E+02 0.59879349141E+02 0.69519598358E+02 0.79607660832E+02 0.89789683138E+02
 0.99686329804E+02 0.10890993615E+03 0.11708261380E+03 0.12385547891E+03 0.12892861299E+03
 0.13207045847E+03 0.11299299008E+03 0.11208067545E+03 0.10938804539E+03 0.10504435785E+03
 0.99253855050E+02 0.92281133580E+02 0.84434084006E+02 0.76046230215E+02 0.67459448439E+02
 0.59007299589E+02 0.50998868408E+02 0.43703307883E+02 0.37335886675E+02 0.32046961543E+02
 0.27915509487E+02 0.24948491674E+02 0.23086411718E+02 0.22214164012E+02 0.22175079446E+02
 0.22811959832E+02 0.24035609643E+02 0.25749397685E+02 0.27826178596E+02 0.30105509406E+02
 0.32396125677E+02 0.34487103895E+02 0.36168704182E+02 0.37260216079E+02 0.37638643925E+02
 0.37260216081E+02 0.36168704188E+02 0.34487103904E+02 0.32396125689E+02 0.30105509421E+02
 0.27826178614E+02 0.25749397707E+02 0.24035609668E+02 0.22811959861E+02 0.22175079479E+02
 0.22214166356E+02 0.23086421611E+02 0.24948514062E+02 0.27915548603E+02 0.32047020519E+02
 0.37335967237E+02 0.43703410126E+02 0.50998990679E+02 0.59007438490E+02 0.67459598961E+02
 0.76046386006E+02 0.84434237757E+02 0.92281277508E+02 0.99253981452E+02 0.10504445968E+03
 0.10938811680E+03 0.11208071225E+03 0.94248312380E+02 0.93483603095E+02 0.91227985664E+02
 0.87593780079E+02 0.82758398899E+02 0.76951555790E+02 0.70440330064E+02 0.63513591642E+02
 0.56466567488E+02 0.49585699163E+02 0.43133793598E+02 0.37335886675E+02 0.32366857145E+02
 0.28342336747E+02 0.25314456104E+02 0.23273376689E+02 0.22154473114E+02 0.21849766193E+02
 0.22228492773E+02 0.23212000126E+02 0.24742119561E+02 0.26734943520E+02 0.29073144620E+02
 0.31600442857E+02 0.34122490270E+02 0.36418234786E+02 0.38263337583E+02 0.39462858632E+02
 0.39879461140E+02 0.39462858544E+02 0.38263337543E+02 0.36418234794E+02 0.34122490280E+02
 0.31600442870E+02 0.29073144637E+02 0.26734943540E+02 0.24742119584E+02 0.23212000152E+02
 0.22228492802E+02 0.21849766414E+02 0.22154476975E+02 0.23273388660E+02 0.25314480141E+02
 0.28342375947E+02 0.32366913452E+02 0.37335960666E+02 0.43133884358E+02 0.49585804265E+02
 0.56466683087E+02 0.63513712689E+02 0.70440450627E+02 0.76951669467E+02 0.82758499291E+02
 0.87593861288E+02 0.91228042773E+02 0.93483632571E+02 0.77289628443E+02 0.76666286495E+02
 0.74829092178E+02 0.71873768431E+02 0.67951364499E+02 0.63257164900E+02 0.58017695758E+02
 0.52477114762E+02 0.46883595850E+02 0.41475862888E+02 0.36469980062E+02 0.32046961543E+02
 0.28342336747E+02 0.25439183351E+02 0.23365971297E+02 0.22099835598E+02 0.21574769589E+02
 0.21694676303E+02 0.22391024524E+02 0.23634168274E+02 0.25379156529E+02 0.27555223136E+02
 0.30056107919E+02 0.32732414502E+02 0.35391221988E+02 0.37807507851E+02 0.39751767731E+02
 0.41018839058E+02 0.41459481262E+02 0.41018838814E+02 0.39751767509E+02 0.37807507835E+02
 0.35391221997E+02 0.32732414514E+02 0.30056107934E+02 0.27555223153E+02 0.25379156550E+02
 0.23634168298E+02 0.22391024551E+02 0.21694676332E+02 0.21574770223E+02 0.22099840388E+02
 0.23365983879E+02 0.25439206718E+02 0.28342372979E+02 0.32047011606E+02 0.36470043674E+02
 0.41475938483E+02 0.46883680640E+02 0.52477204899E+02 0.58017786594E+02 0.63257251330E+02
 0.67951441359E+02 0.71873830925E+02 0.74829136280E+02 0.76666309306E+02 0.62414329029E+02
 0.61924010184E+02 0.60480331706E+02 0.58162759835E+02 0.55096486346E+02 0.51442930159E+02
 0.47388598791E+02 0.43133363450E+02 0.38878700099E+02 0.34816051399E+02 0.31115518734E+02
 0.27915509487E+02 0.25314456104E+02 0.23365971297E+02 0.22078530431E+02 0.21420007620E+02
 0.21326673266E+02 0.21744867597E+02 0.22663097859E+02 0.24064541238E+02 0.25916644729E+02
 0.28161820648E+02 0.30706160118E+02 0.33410466072E+02 0.36088995745E+02 0.38521014862E+02
 0.40480248408E+02 0.41758744803E+02 0.42203680725E+02 0.41758744455E+02 0.40480248047E+02
 0.38521014781E+02 0.36088995754E+02 0.33410466082E+02 0.30706160131E+02 0.28161820663E+02
 0.25916644747E+02 0.24064541259E+02 0.22663097883E+02 0.21744867623E+02 0.21326673294E+02
 0.21420008510E+02 0.22078535307E+02 0.23365982988E+02 0.25314476748E+02 0.27915540338E+02
 0.31115560029E+02 0.34816102312E+02 0.38878758771E+02 0.43133427104E+02 0.47388663944E+02
 0.51442992893E+02 0.55096542637E+02 0.58162805906E+02 0.60480364366E+02 0.61924027121E+02
 0.49815444976E+02 0.49447664460E+02 0.48366204927E+02 0.46634743254E+02 0.44353344556E+02
 0.41650512013E+02 0.38673835904E+02 0.35580139604E+02 0.32525590299E+02 0.29655989692E+02
 0.27097507360E+02 0.24948491674E+02 0.23273376689E+02 0.22099835598E+02 0.21420007620E+02
 0.21196054522E+02 0.21392347107E+02 0.22009195818E+02 0.23046552722E+02 0.24497086949E+02
 0.26340035236E+02 0.28530914601E+02 0.30989514890E+02 0.33590428289E+02 0.36161359894E+02
 0.38494064785E+02 0.40372945941E+02 0.41599176081E+02 0.42025985277E+02 0.41599175753E+02
 0.40372945606E+02 0.38494064717E+02 0.36161359901E+02 0.33590428298E+02 0.30989514901E+02
 0.28530914615E+02 0.26340035252E+02 0.24497086967E+02 0.23046552743E+02 0.22009195841E+02
 0.21392347132E+02 0.21196054549E+02 0.21420008451E+02 0.22099839753E+02 0.23273386285E+02
 0.24948508153E+02 0.27097531366E+02 0.29656021005E+02 0.32525627847E+02 0.35580181541E+02
 0.38673879769E+02 0.41650554942E+02 0.44353383547E+02 0.46634775447E+02 0.48366227884E+02
 0.49447676407E+02 0.39568189539E+02 0.39310430324E+02 0.38553891399E+02 0.37347206299E+02
 0.35766523484E+02 0.33909057177E+02 0.31885472601E+02 0.29811838421E+02 0.27801580831E+02
 0.25957679087E+02 0.24365433008E+02 0.23086411718E+02 0.22154473114E+02 0.21574769589E+02
 0.21326673266E+02 0.21392347107E+02 0.21779601572E+02 0.22496257565E+02 0.23548408956E+02
 0.24937897043E+02 0.26655357256E+02 0.28669547357E+02 0.30915389504E+02 0.33284735981E+02
 0.35624657926E+02 0.37747303758E+02 0.39454697983E+02 0.40567873406E+02 0.40955173442E+02
 0.40567873206E+02 0.39454697816E+02 0.37747303756E+02 0.35624657932E+02 0.33284735989E+02
 0.30915389513E+02 0.28669547369E+02 0.26655357270E+02 0.24937897059E+02 0.23548408974E+02
 0.22496257585E+02 0.21779601594E+02 0.21392347131E+02 0.21326673291E+02 0.21574770104E+02
 0.22154476014E+02 0.23086418539E+02 0.24365444682E+02 0.25957695870E+02 0.27801602291E+02
 0.29811863491E+02 0.31885499687E+02 0.33909084322E+02 0.35766548571E+02 0.37347227270E+02
 0.38553906480E+02 0.39310438209E+02 0.31620925333E+02 0.31459032363E+02 0.30985344686E+02
 0.30234614443E+02 0.29260960667E+02 0.28132834687E+02 0.26927030413E+02 0.25722312683E+02
 0.24593052222E+02 0.23603170138E+02 0.22800784015E+02 0.22214164012E+02 0.21849766193E+02
 0.21694676303E+02 0.21744867597E+02 0.22009195818E+02 0.22496257565E+02 0.23216609477E+02
 0.24182965591E+02 0.25406649015E+02 0.26889981711E+02 0.28615595014E+02 0.30535062969E+02
 0.32560464848E+02 0.34562986665E+02 0.36381882534E+02 0.37844705047E+02 0.38796587580E+02
 0.39127455305E+02 0.38796587531E+02 0.37844705037E+02 0.36381882538E+02 0.34562986670E+02
 0.32560464855E+02 0.30535062978E+02 0.28615595025E+02 0.26889981723E+02 0.25406649028E+02
 0.24182965607E+02 0.23216609495E+02 0.22496257584E+02 0.22009195839E+02 0.21744867619E+02
 0.21694676326E+02 0.21849766350E+02 0.22214165531E+02 0.22800788007E+02 0.23603177203E+02
 0.24593062425E+02 0.25722325578E+02 0.26927045117E+02 0.28132849994E+02 0.29260975201E+02
 0.30234626826E+02 0.30985353703E+02 0.31459037112E+02 0.25796484984E+02 0.25715367375E+02
 0.25479814304E+02 0.25112335808E+02 0.24647651296E+02 0.24128925735E+02 0.23603196832E+02
 0.23116414357E+02 0.22708457487E+02 0.22408517100E+02 0.22231351353E+02 0.22175079446E+02
 0.22228492773E+02 0.22391024524E+02 0.22663097859E+02 0.23046552722E+02 0.23548408956E+02
 0.24182965591E+02 0.24970839933E+02 0.25934182965E+02 0.27088295852E+02 0.28430989661E+02
 0.29932058760E+02 0.31525969955E+02 0.33111017142E+02 0.34557370316E+02 0.35724397838E+02
 0.36484627121E+02 0.36748749450E+02 0.36484627122E+02 0.35724397840E+02 0.34557370320E+02
 0.33111017146E+02 0.31525969961E+02 0.29932058767E+02 0.28430989670E+02 0.27088295863E+02
 0.25934182977E+02 0.24970839947E+02 0.24182965606E+02 0.23548408972E+02 0.23046552740E+02
 0.22663097878E+02 0.22391024544E+02 0.22228492793E+02 0.22175079467E+02 0.22231351799E+02
 0.22408518790E+02 0.22708460843E+02 0.23116419403E+02 0.23603203239E+02 0.24128932895E+02
 0.24647658431E+02 0.25112342089E+02 0.25479818976E+02 0.25715369866E+02 0.21807509735E+02
 0.21792040323E+02 0.21749945474E+02 0.21693560545E+02 0.21641500721E+02 0.21615937338E+02
 0.21639122119E+02 0.21729438264E+02 0.21897352322E+02 0.22141793728E+02 0.22450509101E+02
 0.22811959832E+02 0.23212000126E+02 0.23634168274E+02 0.24064541238E+02 0.24497086949E+02
 0.24937897043E+02 0.25406649015E+02 0.25934182965E+02 0.26556042286E+02 0.27302910188E+02
 0.28189770535E+02 0.29206171929E+02 0.30310146696E+02 0.31428080042E+02 0.32461971790E+02
 0.33303928959E+02 0.33855540062E+02 0.34047704349E+02 0.33855540063E+02 0.33303928960E+02
 0.32461971792E+02 0.31428080046E+02 0.30310146701E+02 0.29206171935E+02 0.28189770542E+02
 0.27302910197E+02 0.26556042296E+02 0.25934182977E+02 0.25406649027E+02 0.24937897057E+02
 0.24497086964E+02 0.24064541255E+02 0.23634168291E+02 0.23212000143E+02 0.22811959849E+02
 0.22450509119E+02 0.22141793746E+02 0.21897352646E+02 0.21729439247E+02 0.21639123839E+02
 0.21615939637E+02 0.21641503278E+02 0.21693562959E+02 0.21749947350E+02 0.21792041347E+02
 0.19285396155E+02 0.19321321122E+02 0.19430732691E+02 0.19618159035E+02 0.19889856631E+02
 0.20251827327E+02 0.20707021061E+02 0.21252003449E+02 0.21877165352E+02 0.22567239376E+02
 0.23297776952E+02 0.24035609643E+02 0.24742119561E+02 0.25379156529E+02 0.25916644729E+02
 0.26340035236E+02 0.26655357256E+02 0.26889981711E+02 0.27088295852E+02 0.27302910188E+02
 0.27583242211E+02 0.27963955370E+02 0.28455716697E+02 0.29040274222E+02 0.29671161872E+02
 0.30280455931E+02 0.30790851024E+02 0.31130941389E+02 0.31250358841E+02 0.31130941390E+02
 0.30790851026E+02 0.30280455933E+02 0.29671161875E+02 0.29040274227E+02 0.28455716702E+02
 0.27963955376E+02 0.27583242219E+02 0.27302910197E+02 0.27088295862E+02 0.26889981722E+02
 0.26655357268E+02 0.26340035249E+02 0.25916644743E+02 0.25379156544E+02 0.24742119576E+02
 0.24035609658E+02 0.23297776967E+02 0.22567239390E+02 0.21877165366E+02 0.21252003462E+02
 0.20707021106E+02 0.20251827532E+02 0.19889857005E+02 0.19618159490E+02 0.19430733098E+02
 0.19321321361E+02 0.17818542324E+02 0.17893212311E+02 0.18117036567E+02 0.18489383112E+02
 0.19008903859E+02 0.19672690159E+02 0.20474534836E+02 0.21402208265E+02 0.22434127414E+02
 0.23536354577E+02 0.24661283245E+02 0.25749397685E+02 0.26734943520E+02 0.27555223136E+02
 0.28161820648E+02 0.28530914601E+02 0.28669547357E+02 0.28615595014E+02 0.28430989661E+02
 0.28189770535E+02 0.27963955370E+02 0.27810550229E+02 0.27762347323E+02 0.27823992405E+02
 0.27973647580E+02 0.28169659352E+02 0.28360911306E+02 0.28498895871E+02 0.28549057262E+02
 0.28498895872E+02 0.28360911307E+02 0.28169659354E+02 0.27973647583E+02 0.27823992408E+02
 0.27762347327E+02 0.27810550235E+02 0.27963955376E+02 0.28189770542E+02 0.28430989670E+02
 0.28615595024E+02 0.28669547367E+02 0.28530914612E+02 0.28161820659E+02 0.27555223148E+02
 0.26734943533E+02 0.25749397698E+02 0.24661283258E+02 0.23536354589E+02 0.22434127426E+02
 0.21402208276E+02 0.20474534846E+02 0.19672690167E+02 0.19008903866E+02 0.18489383118E+02
 0.18117036571E+02 0.17893212313E+02 0.17025123517E+02 0.17130171748E+02 0.17444717472E+02
 0.17966915714E+02 0.18693327915E+02 0.19617776317E+02 0.20728904563E+02 0.22006332230E+02
 0.23415991827E+02 0.24906038897E+02 0.26405297293E+02 0.27826178596E+02 0.29073144620E+02
 0.30056107919E+02 0.30706160118E+02 0.30989514890E+02 0.30915389504E+02 0.30535062969E+02
 0.29932058760E+02 0.29206171929E+02 0.28455716697E+02 0.27762347323E+02 0.27181398368E+02
 0.26738752578E+02 0.26433604544E+02 0.26245535032E+02 0.26143970758E+02 0.26098108521E+02
 0.26085540934E+02 0.26098108522E+02 0.26143970759E+02 0.26245535034E+02 0.26433604546E+02
 0.26738752581E+02 0.27181398372E+02 0.27762347327E+02 0.28455716703E+02 0.29206171935E+02
 0.29932058767E+02 0.30535062977E+02 0.30915389512E+02 0.30989514900E+02 0.30706160128E+02
 0.30056107929E+02 0.29073144631E+02 0.27826178607E+02 0.26405297304E+02 0.24906038908E+02
 0.23415991837E+02 0.22006332240E+02 0.20728904571E+02 0.19617776325E+02 0.18693327921E+02
 0.17966915719E+02 0.17444717475E+02 0.17130171750E+02 0.16687185601E+02 0.16817744783E+02
 0.17208843111E+02 0.17858656272E+02 0.18763581262E+02 0.19916589100E+02 0.21303811489E+02
 0.22899236382E+02 0.24658336154E+02 0.26512531122E+02 0.28367152287E+02 0.30105509406E+02
 0.31600442857E+02 0.32732414502E+02 0.33410466072E+02 0.33590428289E+02 0.33284735981E+02
 0.32560464848E+02 0.31525969955E+02 0.30310146696E+02 0.29040274222E+02 0.27823992405E+02
 0.26738752578E+02 0.25829326219E+02 0.25111817120E+02 0.24581625919E+02 0.24222826665E+02
 0.24016978373E+02 0.23950083524E+02 0.24016978373E+02 0.24222826666E+02 0.24581625921E+02
 0.25111817122E+02 0.25829326221E+02 0.26738752582E+02 0.27823992409E+02 0.29040274227E+02
 0.30310146701E+02 0.31525969961E+02 0.32560464855E+02 0.33284735988E+02 0.33590428297E+02
 0.33410466080E+02 0.32732414511E+02 0.31600442866E+02 0.30105509415E+02 0.28367152297E+02
 0.26512531131E+02 0.24658336163E+02 0.22899236390E+02 0.21303811496E+02 0.19916589107E+02
 0.18763581267E+02 0.17858656276E+02 0.17208843114E+02 0.16817744785E+02 0.16642852742E+02
 0.16794303607E+02 0.17248420186E+02 0.18004339544E+02 0.19059768049E+02 0.20408704837E+02
 0.22036893428E+02 0.23914867805E+02 0.25989655589E+02 0.28177572143E+02 0.30361518547E+02
 0.32396125677E+02 0.34122490270E+02 0.35391221988E+02 0.36088995745E+02 0.36161359894E+02
 0.35624657926E+02 0.34562986665E+02 0.33111017142E+02 0.31428080042E+02 0.29671161872E+02
 0.27973647580E+02 0.26433604544E+02 0.25111817120E+02 0.24037148527E+02 0.23215763367E+02
 0.22641065063E+02 0.22302239045E+02 0.22190412109E+02 0.22302239045E+02 0.22641065064E+02
 0.23215763369E+02 0.24037148529E+02 0.25111817123E+02 0.26433604547E+02 0.27973647584E+02
 0.29671161876E+02 0.31428080047E+02 0.33111017147E+02 0.34562986671E+02 0.35624657932E+02
 0.36161359901E+02 0.36088995753E+02 0.35391221995E+02 0.34122490278E+02 0.32396125685E+02
 0.30361518555E+02 0.28177572151E+02 0.25989655596E+02 0.23914867811E+02 0.22036893434E+02
 0.20408704842E+02 0.19059768054E+02 0.18004339547E+02 0.17248420188E+02 0.16794303608E+02
 0.16753218804E+02 0.16921049256E+02 0.17424824899E+02 0.18265162155E+02 0.19441904770E+02
 0.20951190549E+02 0.22779761493E+02 0.24896375039E+02 0.27241596480E+02 0.29718904456E+02
 0.32191244669E+02 0.34487103895E+02 0.36418234786E+02 0.37807507851E+02 0.38521014862E+02
 0.38494064785E+02 0.37747303758E+02 0.36381882534E+02 0.34557370316E+02 0.32461971790E+02
 0.30280455931E+02 0.28169659352E+02 0.26245535032E+02 0.24581625919E+02 0.23215763367E+02
 0.22160702586E+02 0.21414992482E+02 0.20971801331E+02 0.20824877600E+02 0.20971801332E+02
 0.21414992483E+02 0.22160702587E+02 0.23215763369E+02 0.24581625922E+02 0.26245535035E+02
 0.28169659355E+02 0.30280455935E+02 0.32461971794E+02 0.34557370321E+02 0.36381882539E+02
 0.37747303766E+02 0.38494064798E+02 0.38521014863E+02 0.37807507852E+02 0.36418234793E+02
 0.34487103902E+02 0.32191244676E+02 0.29718904462E+02 0.27241596486E+02 0.24896375045E+02
 0.22779761499E+02 0.20951190553E+02 0.19441904774E+02 0.18265162158E+02 0.17424824901E+02
 0.16921049257E+02 0.16908971968E+02 0.17088637690E+02 0.17628451239E+02 0.18530549129E+02
 0.19797011227E+02 0.21426354017E+02 0.23406863602E+02 0.25706616671E+02 0.28261642327E+02
 0.30965565311E+02 0.33665472858E+02 0.36168704182E+02 0.38263337583E+02 0.39751767731E+02
 0.40480248408E+02 0.40372945941E+02 0.39454697983E+02 0.37844705047E+02 0.35724397838E+02
 0.33303928959E+02 0.30790851024E+02 0.28360911306E+02 0.26143970758E+02 0.24222826665E+02
 0.22641065063E+02 0.21414992482E+02 0.20545488565E+02 0.20027338607E+02 0.19855310040E+02
 0.20027338608E+02 0.20545488565E+02 0.21414992483E+02 0.22641065065E+02 0.24222826667E+02
 0.26143970760E+02 0.28360911309E+02 0.30790851028E+02 0.33303928962E+02 0.35724397842E+02
 0.37844705060E+02 0.39454698058E+02 0.40372946001E+02 0.40480248381E+02 0.39751767660E+02
 0.38263337563E+02 0.36168704189E+02 0.33665472865E+02 0.30965565317E+02 0.28261642332E+02
 0.25706616676E+02 0.23406863607E+02 0.21426354022E+02 0.19797011231E+02 0.18530549132E+02
 0.17628451240E+02 0.17088637691E+02 0.17032787347E+02 0.17219631052E+02 0.17781370061E+02
 0.18721261692E+02 0.20043047378E+02 0.21747055511E+02 0.23822876041E+02 0.26238447151E+02
 0.28927117483E+02 0.31776293249E+02 0.34622818787E+02 0.37260216079E+02 0.39462858632E+02
 0.41018839058E+02 0.41758744803E+02 0.41599176081E+02 0.40567873406E+02 0.38796587580E+02
 0.36484627121E+02 0.33855540062E+02 0.31130941389E+02 0.28498895871E+02 0.26098108521E+02
 0.24016978373E+02 0.22302239045E+02 0.20971801331E+02 0.20027338607E+02 0.19464058406E+02
 0.19276960366E+02 0.19464058406E+02 0.20027338608E+02 0.20971801332E+02 0.22302239046E+02
 0.24016978375E+02 0.26098108523E+02 0.28498895874E+02 0.31130941392E+02 0.33855540066E+02
 0.36484627125E+02 0.38796587652E+02 0.40567873577E+02 0.41599176193E+02 0.41758744746E+02
 0.41018838897E+02 0.39462858531E+02 0.37260216084E+02 0.34622818793E+02 0.31776293255E+02
 0.28927117488E+02 0.26238447156E+02 0.23822876046E+02 0.21747055515E+02 0.20043047381E+02
 0.18721261694E+02 0.17781370062E+02 0.17219631053E+02 0.17079063344E+02 0.17268315047E+02
 0.17837421477E+02 0.18790050911E+02 0.20130555927E+02 0.21859937901E+02 0.23968289327E+02
 0.26423551148E+02 0.29158186575E+02 0.32057474499E+02 0.34954714183E+02 0.37638643925E+02
 0.39879461140E+02 0.41459481262E+02 0.42203680725E+02 0.42025985277E+02 0.40955173442E+02
 0.39127455305E+02 0.36748749450E+02 0.34047704349E+02 0.31250358841E+02 0.28549057262E+02
 0.26085540934E+02 0.23950083524E+02 0.22190412109E+02 0.20824877600E+02 0.19855310040E+02