  22  22   0   0
  0.1671580E+01  0.2963800E-09  0.2963800E-09  0.4186510E-09  0.5000000E-15
   1.0000000000000000E-004
  CAR 
 sys                                     
     30.46213809    -32.47186841  301     14.77207931      1.00000000
    -32.472  0.0000E+00  0.0000E+00
    -32.262  0.0000E+00  0.0000E+00
    -32.052  0.0000E+00  0.0000E+00
    -31.843  0.0000E+00  0.0000E+00
    -31.633  0.0000E+00  0.0000E+00
    -31.423  0.0000E+00  0.0000E+00
    -31.213  0.0000E+00  0.0000E+00
    -31.003  0.0000E+00  0.0000E+00
    -30.794  0.0000E+00  0.0000E+00
    -30.584 -0.7107E-43 -0.1491E-43
    -30.374 -0.3922E-27 -0.8229E-28
    -30.164 -0.3364E-15 -0.7057E-16
    -29.955 -0.5133E-07 -0.1077E-07
    -29.745 -0.1305E-02 -0.2739E-03
    -29.535  0.7152E-01  0.1473E-01
    -29.325  0.5086E+00  0.1214E+00
    -29.115  0.1024E+01  0.3362E+00
    -28.906  0.1308E+01  0.6107E+00
    -28.696  0.1906E+01  0.1011E+01
    -28.486  0.2441E+01  0.1523E+01
    -28.276  0.1490E+01  0.1835E+01
    -28.066  0.8006E+00  0.2003E+01
    -27.857 -0.1449E-01  0.2000E+01
    -27.647 -0.3131E-04  0.2000E+01
    -27.437 -0.3718E-02  0.1999E+01
    -27.227  0.1730E+00  0.2036E+01
    -27.018  0.7304E+00  0.2189E+01
    -26.808  0.2634E+01  0.2741E+01
    -26.598  0.3910E+01  0.3561E+01
    -26.388  0.1749E+01  0.3928E+01
    -26.178  0.3470E+00  0.4001E+01
    -25.969 -0.6050E-02  0.4000E+01
    -25.759 -0.1843E-06  0.4000E+01
    -25.549 -0.7139E-15  0.4000E+01
    -25.339  0.0000E+00  0.4000E+01
    -25.130  0.0000E+00  0.4000E+01
    -24.920  0.0000E+00  0.4000E+01
    -24.710  0.0000E+00  0.4000E+01
    -24.500  0.0000E+00  0.4000E+01
    -24.290  0.0000E+00  0.4000E+01
    -24.081  0.0000E+00  0.4000E+01
    -23.871  0.0000E+00  0.4000E+01
    -23.661  0.0000E+00  0.4000E+01
    -23.451  0.0000E+00  0.4000E+01
    -23.242  0.0000E+00  0.4000E+01
    -23.032  0.0000E+00  0.4000E+01
    -22.822  0.0000E+00  0.4000E+01
    -22.612  0.0000E+00  0.4000E+01
    -22.402  0.0000E+00  0.4000E+01
    -22.193  0.0000E+00  0.4000E+01
    -21.983  0.0000E+00  0.4000E+01
    -21.773  0.0000E+00  0.4000E+01
    -21.563  0.0000E+00  0.4000E+01
    -21.354  0.0000E+00  0.4000E+01
    -21.144  0.0000E+00  0.4000E+01
    -20.934  0.0000E+00  0.4000E+01
    -20.724  0.0000E+00  0.4000E+01
    -20.514  0.0000E+00  0.4000E+01
    -20.305  0.0000E+00  0.4000E+01
    -20.095  0.0000E+00  0.4000E+01
    -19.885  0.0000E+00  0.4000E+01
    -19.675  0.0000E+00  0.4000E+01
    -19.466  0.0000E+00  0.4000E+01
    -19.256  0.0000E+00  0.4000E+01
    -19.046  0.0000E+00  0.4000E+01
    -18.836  0.0000E+00  0.4000E+01
    -18.626  0.0000E+00  0.4000E+01
    -18.417  0.0000E+00  0.4000E+01
    -18.207  0.0000E+00  0.4000E+01
    -17.997  0.0000E+00  0.4000E+01
    -17.787  0.0000E+00  0.4000E+01
    -17.577  0.0000E+00  0.4000E+01
    -17.368  0.0000E+00  0.4000E+01
    -17.158  0.0000E+00  0.4000E+01
    -16.948  0.0000E+00  0.4000E+01
    -16.738 -0.1759E-30  0.4000E+01
    -16.529 -0.1682E-17  0.4000E+01
    -16.319 -0.2061E-08  0.4000E+01
    -16.109 -0.2974E-03  0.4000E+01
    -15.899  0.2302E-01  0.4005E+01
    -15.689  0.1830E+00  0.4043E+01
    -15.480  0.3521E+00  0.4117E+01
    -15.270  0.6552E+00  0.4254E+01
    -15.060  0.8268E+00  0.4428E+01
    -14.850  0.1109E+01  0.4661E+01
    -14.641  0.1464E+01  0.4968E+01
    -14.431  0.1901E+01  0.5366E+01
    -14.221  0.3296E+01  0.6058E+01
    -14.011  0.2382E+01  0.6557E+01
    -13.801  0.2150E+01  0.7008E+01
    -13.592  0.1257E+01  0.7272E+01
    -13.382  0.9572E+00  0.7473E+01
    -13.172  0.6961E+00  0.7619E+01
    -12.962  0.5174E+00  0.7727E+01
    -12.753  0.7698E+00  0.7889E+01
    -12.543  0.6578E+00  0.8027E+01
    -12.333  0.7628E+00  0.8187E+01
    -12.123  0.9556E+00  0.8387E+01
    -11.913  0.8947E+00  0.8575E+01
    -11.704  0.8884E+00  0.8761E+01
    -11.494  0.1117E+01  0.8996E+01
    -11.284  0.1064E+01  0.9219E+01
    -11.074  0.1134E+01  0.9457E+01
    -10.865  0.9778E+00  0.9662E+01
    -10.655  0.1405E+01  0.9957E+01
    -10.445  0.1331E+01  0.1024E+02
    -10.235  0.1661E+01  0.1058E+02
    -10.025  0.1612E+01  0.1092E+02
     -9.816  0.2374E+01  0.1142E+02
     -9.606  0.1982E+01  0.1184E+02
     -9.396  0.2342E+01  0.1233E+02
     -9.186  0.2375E+01  0.1283E+02
     -8.977  0.2157E+01  0.1328E+02
     -8.767  0.2377E+01  0.1378E+02
     -8.557  0.2073E+01  0.1421E+02
     -8.347  0.2299E+01  0.1469E+02
     -8.137  0.2106E+01  0.1514E+02
     -7.928  0.2483E+01  0.1566E+02
     -7.718  0.1562E+01  0.1598E+02
     -7.508  0.7503E-01  0.1600E+02
     -7.298  0.2399E-01  0.1601E+02
     -7.088  0.2641E-01  0.1601E+02
     -6.879  0.1038E+00  0.1603E+02
     -6.669  0.1363E+00  0.1606E+02
     -6.459  0.1477E+00  0.1609E+02
     -6.249  0.9408E-01  0.1611E+02
     -6.040  0.2609E+00  0.1617E+02
     -5.830  0.3654E+00  0.1624E+02
     -5.620  0.2279E+00  0.1629E+02
     -5.410  0.3614E+00  0.1637E+02
     -5.200  0.3944E+00  0.1645E+02
     -4.991  0.5413E+00  0.1656E+02
     -4.781  0.6380E+00  0.1670E+02
     -4.571  0.7240E+00  0.1685E+02
     -4.361  0.7493E+00  0.1701E+02
     -4.152  0.1243E+01  0.1727E+02
     -3.942  0.1052E+01  0.1749E+02
     -3.732  0.1507E+01  0.1780E+02
     -3.522  0.1457E+01  0.1811E+02
     -3.312  0.1706E+01  0.1847E+02
     -3.103  0.1707E+01  0.1883E+02
     -2.893  0.1602E+01  0.1916E+02
     -2.683  0.1405E+01  0.1946E+02
     -2.473  0.8867E+00  0.1964E+02
     -2.264  0.1075E+01  0.1987E+02
     -2.054  0.7283E+00  0.2002E+02
     -1.844  0.5355E+00  0.2013E+02
     -1.634  0.7655E+00  0.2029E+02
     -1.424  0.1104E+01  0.2053E+02
     -1.215  0.1175E+01  0.2077E+02
     -1.005  0.1432E+01  0.2107E+02
     -0.795  0.2069E+01  0.2151E+02
     -0.585  0.1756E+01  0.2187E+02
     -0.376  0.1719E+01  0.2224E+02
     -0.166  0.1255E+01  0.2250E+02
      0.044  0.2099E+01  0.2294E+02
      0.254  0.1381E+01  0.2323E+02
      0.464  0.1169E+01  0.2347E+02
      0.673  0.1533E+01  0.2380E+02
      0.883  0.1174E+01  0.2404E+02
      1.093  0.1218E+01  0.2430E+02
      1.303  0.1239E+01  0.2456E+02
      1.512  0.1350E+01  0.2484E+02
      1.722  0.1556E+01  0.2517E+02
      1.932  0.1614E+01  0.2551E+02
      2.142  0.1639E+01  0.2585E+02
      2.352  0.1783E+01  0.2622E+02
      2.561  0.1600E+01  0.2656E+02
      2.771  0.1809E+01  0.2694E+02
      2.981  0.1113E+01  0.2717E+02
      3.191  0.1010E+01  0.2738E+02
      3.401  0.8426E+00  0.2756E+02
      3.610  0.9147E+00  0.2775E+02
      3.820  0.7899E+00  0.2792E+02
      4.030  0.9559E+00  0.2812E+02
      4.240  0.8910E+00  0.2831E+02
      4.449  0.1396E+01  0.2860E+02
      4.659  0.1372E+01  0.2889E+02
      4.869  0.1950E+01  0.2929E+02
      5.079  0.1960E+01  0.2971E+02
      5.289  0.1369E+01  0.2999E+02
      5.498  0.1614E+01  0.3033E+02
      5.708  0.1251E+01  0.3059E+02
      5.918  0.1109E+01  0.3083E+02
      6.128  0.1350E+01  0.3111E+02
      6.337  0.7540E+00  0.3127E+02
      6.547  0.1086E+01  0.3150E+02
      6.757  0.1098E+01  0.3173E+02
      6.967  0.1188E+01  0.3198E+02
      7.177  0.1215E+01  0.3223E+02
      7.386  0.1090E+01  0.3246E+02
      7.596  0.1396E+01  0.3275E+02
      7.806  0.1065E+01  0.3298E+02
      8.016  0.1089E+01  0.3320E+02
      8.225  0.1320E+01  0.3348E+02
      8.435  0.1860E+01  0.3387E+02
      8.645  0.1198E+01  0.3412E+02
      8.855  0.1345E+01  0.3440E+02
      9.065  0.1316E+01  0.3468E+02
      9.274  0.1077E+01  0.3491E+02
      9.484  0.1277E+01  0.3517E+02
      9.694  0.1118E+01  0.3541E+02
      9.904  0.1397E+01  0.3570E+02
     10.113  0.8042E+00  0.3587E+02
     10.323  0.1039E+01  0.3609E+02
     10.533  0.1152E+01  0.3633E+02
     10.743  0.8475E+00  0.3651E+02
     10.953  0.8257E+00  0.3668E+02
     11.162  0.8424E+00  0.3686E+02
     11.372  0.8255E+00  0.3703E+02
     11.582  0.1086E+01  0.3726E+02
     11.792  0.9603E+00  0.3746E+02
     12.001  0.1257E+01  0.3772E+02
     12.211  0.1744E+01  0.3809E+02
     12.421  0.1471E+01  0.3840E+02
     12.631  0.9984E+00  0.3861E+02
     12.841  0.1492E+01  0.3892E+02
     13.050  0.1435E+01  0.3922E+02
     13.260  0.8895E+00  0.3941E+02
     13.470  0.9987E+00  0.3962E+02
     13.680  0.9910E+00  0.3983E+02
     13.890  0.1426E+01  0.4013E+02
     14.099  0.1098E+01  0.4036E+02
     14.309  0.1094E+01  0.4059E+02
     14.519  0.1020E+01  0.4080E+02
     14.729  0.7904E+00  0.4097E+02
     14.938  0.8498E+00  0.4114E+02
     15.148  0.1239E+01  0.4140E+02
     15.358  0.1074E+01  0.4163E+02
     15.568  0.1203E+01  0.4188E+02
     15.778  0.1270E+01  0.4215E+02
     15.987  0.1326E+01  0.4243E+02
     16.197  0.1134E+01  0.4266E+02
     16.407  0.1280E+01  0.4293E+02
     16.617  0.1059E+01  0.4315E+02
     16.826  0.1169E+01  0.4340E+02
     17.036  0.1138E+01  0.4364E+02
     17.246  0.1255E+01  0.4390E+02
     17.456  0.1600E+01  0.4424E+02
     17.666  0.1178E+01  0.4448E+02
     17.875  0.1348E+01  0.4477E+02
     18.085  0.1188E+01  0.4502E+02
     18.295  0.1296E+01  0.4529E+02
     18.505  0.1733E+01  0.4565E+02
     18.714  0.1570E+01  0.4598E+02
     18.924  0.1853E+01  0.4637E+02
     19.134  0.1911E+01  0.4677E+02
     19.344  0.2596E+01  0.4732E+02
     19.554  0.2112E+01  0.4776E+02
     19.763  0.2482E+01  0.4828E+02
     19.973  0.2184E+01  0.4874E+02
     20.183  0.2945E+01  0.4935E+02
     20.393  0.2070E+01  0.4979E+02
     20.602  0.3140E+01  0.5045E+02
     20.812  0.1989E+01  0.5087E+02
     21.022  0.1883E+01  0.5126E+02
     21.232  0.2467E+01  0.5178E+02
     21.442  0.2270E+01  0.5225E+02
     21.651  0.1948E+01  0.5266E+02
     21.861  0.2487E+01  0.5318E+02
     22.071  0.2092E+01  0.5362E+02
     22.281  0.1874E+01  0.5402E+02
     22.490  0.2600E+01  0.5456E+02
     22.700  0.2135E+01  0.5501E+02
     22.910  0.2287E+01  0.5549E+02
     23.120  0.2980E+01  0.5612E+02
     23.330  0.2140E+01  0.5656E+02
     23.539  0.1971E+01  0.5698E+02
     23.749  0.2387E+01  0.5748E+02
     23.959  0.2042E+01  0.5791E+02
     24.169  0.2164E+01  0.5836E+02
     24.379  0.3027E+01  0.5900E+02
     24.588  0.2477E+01  0.5952E+02
     24.798  0.2911E+01  0.6013E+02
     25.008  0.2957E+01  0.6075E+02
     25.218  0.2797E+01  0.6133E+02
     25.427  0.2284E+01  0.6181E+02
     25.637  0.2036E+01  0.6224E+02
     25.847  0.2187E+01  0.6270E+02
     26.057  0.1658E+01  0.6305E+02
     26.267  0.1361E+01  0.6333E+02
     26.476  0.1126E+01  0.6357E+02
     26.686  0.1051E+01  0.6379E+02
     26.896  0.4542E+00  0.6388E+02
     27.106  0.3885E+00  0.6396E+02
     27.315  0.1223E+00  0.6399E+02
     27.525  0.2244E-01  0.6400E+02
     27.735  0.2403E-01  0.6400E+02
     27.945 -0.8121E-03  0.6400E+02
     28.155 -0.1627E-06  0.6400E+02
     28.364 -0.1886E-14  0.6400E+02
     28.574  0.0000E+00  0.6400E+02
     28.784  0.0000E+00  0.6400E+02
     28.994  0.0000E+00  0.6400E+02
     29.203  0.0000E+00  0.6400E+02
     29.413  0.0000E+00  0.6400E+02
     29.623  0.0000E+00  0.6400E+02
     29.833  0.0000E+00  0.6400E+02
     30.043  0.0000E+00  0.6400E+02
     30.252  0.0000E+00  0.6400E+02
     30.462  0.0000E+00  0.6400E+02
