sys                                     
   1.0000000000000000     
     2.963800    0.000000    0.000000
     0.000000    2.963800    0.000000
     0.000000    0.000000    4.186510
   Ca   Y    H 
     1     1    20
Direct
  1.000000  1.000000  0.999997
  0.500000  0.500000  0.499999
  0.256400  0.500000  0.115800
  0.743600  0.500000  0.115800
  0.500000  0.256400  0.115800
  0.500000  0.743600  0.115800
  0.743600  0.500000  0.884198
  0.256400  0.500000  0.884198
  0.500000  0.256400  0.884198
  0.500000  0.743600  0.884198
  1.000000  0.500000  0.758298
  0.500000  1.000000  0.758298
  1.000000  0.500000  0.241699
  0.500000  1.000000  0.241699
  0.237300  1.000000  0.373199
  0.762700  1.000000  0.373199
  1.000000  0.237300  0.373199
  1.000000  0.762700  0.373199
  0.762700  1.000000  0.626798
  0.237300  1.000000  0.626798
  1.000000  0.237300  0.626798
  1.000000  0.762700  0.626798

   28   28   36
 0.69855     0.69625     0.68963     0.67945     0.66617     0.64697     0.61052     0.53187     0.38723     0.22556    
 0.13826     0.12283     0.14217     0.16542     0.17461     0.16542     0.14217     0.12283     0.13826     0.22556    
 0.38723     0.53187     0.61052     0.64697     0.66617     0.67945     0.68963     0.69625     0.69625     0.69391    
 0.68718     0.67685     0.66312     0.64265     0.60334     0.51991     0.37254     0.21748     0.13954     0.13164    
 0.15820     0.18679     0.19782     0.18679     0.15820     0.13164     0.13954     0.21748     0.37254     0.51991    
 0.60334     0.64265     0.66312     0.67685     0.68718     0.69391     0.68963     0.68718     0.68019     0.66930    
 0.65398     0.62926     0.58090     0.48380     0.33203     0.19799     0.14538     0.15966     0.20837     0.25264    
 0.26894     0.25264     0.20837     0.15966     0.14538     0.19799     0.33203     0.48380     0.58090     0.62926    
 0.65398     0.66930     0.68019     0.68718     0.67945     0.67685     0.66930     0.65698     0.63785     0.60432    
 0.53943     0.42284     0.27551     0.17723     0.16049     0.21036     0.29310     0.35797     0.38050     0.35797    
 0.29310     0.21036     0.16049     0.17723     0.27551     0.42284     0.53943     0.60432     0.63785     0.65698    
 0.66930     0.67685     0.66617     0.66312     0.65398     0.63785     0.61038     0.56064     0.47128     0.33939    
 0.21697     0.16421     0.18949     0.28319     0.39809     0.47582     0.50118     0.47582     0.39809     0.28319    
 0.18949     0.16421     0.21697     0.33939     0.47128     0.56064     0.61038     0.63785     0.65398     0.66312    
 0.64697     0.64265     0.62926     0.60432     0.56064     0.48555     0.37182     0.24807     0.17096     0.16435    
 0.23259     0.36347     0.49218     0.56964     0.59390     0.56964     0.49218     0.36347     0.23259     0.16435    
 0.17096     0.24807     0.37182     0.48555     0.56064     0.60432     0.62926     0.64265     0.61052     0.60334    
 0.58090     0.53943     0.47128     0.37182     0.25923     0.17579     0.14716     0.17905     0.27922     0.42365    
 0.54791     0.61964     0.64204     0.61964     0.54791     0.42365     0.27922     0.17905     0.14716     0.17579    
 0.25923     0.37182     0.47128     0.53943     0.58090     0.60334     0.53187     0.51991     0.48380     0.42284    
 0.33939     0.24807     0.17579     0.14124     0.14896     0.20438     0.31062     0.44274     0.55501     0.62253    
 0.64424     0.62253     0.55501     0.44274     0.31062     0.20438     0.14896     0.14124     0.17579     0.24807    
 0.33939     0.42284     0.48380     0.51991     0.38723     0.37254     0.33203     0.27551     0.21697     0.17096    
 0.14716     0.14896     0.17733     0.23328     0.31674     0.41851     0.51386     0.57764     0.59938     0.57764    
 0.51386     0.41851     0.31674     0.23328     0.17733     0.14896     0.14716     0.17096     0.21697     0.27551    
 0.33203     0.37254     0.22556     0.21748     0.19799     0.17723     0.16421     0.16435     0.17905     0.20438    
 0.23328     0.26463     0.30663     0.36564     0.43263     0.48526     0.50486     0.48526     0.43263     0.36564    
 0.30663     0.26463     0.23328     0.20438     0.17905     0.16435     0.16421     0.17723     0.19799     0.21748    
 0.13826     0.13954     0.14538     0.16049     0.18949     0.23259     0.27922     0.31062     0.31674     0.30663    
 0.29936     0.30859     0.33378     0.36082     0.37234     0.36082     0.33378     0.30859     0.29936     0.30663    
 0.31674     0.31062     0.27922     0.23259     0.18949     0.16049     0.14538     0.13954     0.12283     0.13164    
 0.15966     0.21036     0.28319     0.36347     0.42365     0.44274     0.41851     0.36564     0.30859     0.26748    
 0.24743     0.24180     0.24131     0.24180     0.24743     0.26748     0.30859     0.36564     0.41851     0.44274    
 0.42365     0.36347     0.28319     0.21036     0.15966     0.13164     0.14217     0.15820     0.20837     0.29310    
 0.39809     0.49218     0.54791     0.55501     0.51386     0.43263     0.33378     0.24743     0.18975     0.15932    
 0.15005     0.15932     0.18975     0.24743     0.33378     0.43263     0.51386     0.55501     0.54791     0.49218    
 0.39809     0.29310     0.20837     0.15820     0.16542     0.18679     0.25264     0.35797     0.47582     0.56964    
 0.61964     0.62253     0.57764     0.48526     0.36082     0.24180     0.15932     0.11632     0.10351     0.11632    
 0.15932     0.24180     0.36082     0.48526     0.57764     0.62253     0.61964     0.56964     0.47582     0.35797    
 0.25264     0.18679     0.17461     0.19782     0.26894     0.38050     0.50118     0.59390     0.64204     0.64424    
 0.59938     0.50486     0.37234     0.24131     0.15005     0.10351     0.89952E-01 0.10351     0.15005     0.24131    
 0.37234     0.50486     0.59938     0.64424     0.64204     0.59390     0.50118     0.38050     0.26894     0.19782    
 0.16542     0.18679     0.25264     0.35797     0.47582     0.56964     0.61964     0.62253     0.57764     0.48526    
 0.36082     0.24180     0.15932     0.11632     0.10351     0.11632     0.15932     0.24180     0.36082     0.48526    
 0.57764     0.62253     0.61964     0.56964     0.47582     0.35797     0.25264     0.18679     0.14217     0.15820    
 0.20837     0.29310     0.39809     0.49218     0.54791     0.55501     0.51386     0.43263     0.33378     0.24743    
 0.18975     0.15932     0.15005     0.15932     0.18975     0.24743     0.33378     0.43263     0.51386     0.55501    
 0.54791     0.49218     0.39809     0.29310     0.20837     0.15820     0.12283     0.13164     0.15966     0.21036    
 0.28319     0.36347     0.42365     0.44274     0.41851     0.36564     0.30859     0.26748     0.24743     0.24180    
 0.24131     0.24180     0.24743     0.26748     0.30859     0.36564     0.41851     0.44274     0.42365     0.36347    
 0.28319     0.21036     0.15966     0.13164     0.13826     0.13954     0.14538     0.16049     0.18949     0.23259    
 0.27922     0.31062     0.31674     0.30663     0.29936     0.30859     0.33378     0.36082     0.37234     0.36082    
 0.33378     0.30859     0.29936     0.30663     0.31674     0.31062     0.27922     0.23259     0.18949     0.16049    
 0.14538     0.13954     0.22556     0.21748     0.19799     0.17723     0.16421     0.16435     0.17905     0.20438    
 0.23328     0.26463     0.30663     0.36564     0.43263     0.48526     0.50486     0.48526     0.43263     0.36564    
 0.30663     0.26463     0.23328     0.20438     0.17905     0.16435     0.16421     0.17723     0.19799     0.21748    
 0.38723     0.37254     0.33203     0.27551     0.21697     0.17096     0.14716     0.14896     0.17733     0.23328    
 0.31674     0.41851     0.51386     0.57764     0.59938     0.57764     0.51386     0.41851     0.31674     0.23328    
 0.17733     0.14896     0.14716     0.17096     0.21697     0.27551     0.33203     0.37254     0.53187     0.51991    
 0.48380     0.42284     0.33939     0.24807     0.17579     0.14124     0.14896     0.20438     0.31062     0.44274    
 0.55501     0.62253     0.64424     0.62253     0.55501     0.44274     0.31062     0.20438     0.14896     0.14124    
 0.17579     0.24807     0.33939     0.42284     0.48380     0.51991     0.61052     0.60334     0.58090     0.53943    
 0.47128     0.37182     0.25923     0.17579     0.14716     0.17905     0.27922     0.42365     0.54791     0.61964    
 0.64204     0.61964     0.54791     0.42365     0.27922     0.17905     0.14716     0.17579     0.25923     0.37182    
 0.47128     0.53943     0.58090     0.60334     0.64697     0.64265     0.62926     0.60432     0.56064     0.48555    
 0.37182     0.24807     0.17096     0.16435     0.23259     0.36347     0.49218     0.56964     0.59390     0.56964    
 0.49218     0.36347     0.23259     0.16435     0.17096     0.24807     0.37182     0.48555     0.56064     0.60432    
 0.62926     0.64265     0.66617     0.66312     0.65398     0.63785     0.61038     0.56064     0.47128     0.33939    
 0.21697     0.16421     0.18949     0.28319     0.39809     0.47582     0.50118     0.47582     0.39809     0.28319    
 0.18949     0.16421     0.21697     0.33939     0.47128     0.56064     0.61038     0.63785     0.65398     0.66312    
 0.67945     0.67685     0.66930     0.65698     0.63785     0.60432     0.53943     0.42284     0.27551     0.17723    
 0.16049     0.21036     0.29310     0.35797     0.38050     0.35797     0.29310     0.21036     0.16049     0.17723    
 0.27551     0.42284     0.53943     0.60432     0.63785     0.65698     0.66930     0.67685     0.68963     0.68718    
 0.68019     0.66930     0.65398     0.62926     0.58090     0.48380     0.33203     0.19799     0.14538     0.15966    
 0.20837     0.25264     0.26894     0.25264     0.20837     0.15966     0.14538     0.19799     0.33203     0.48380    
 0.58090     0.62926     0.65398     0.66930     0.68019     0.68718     0.69625     0.69391     0.68718     0.67685    
 0.66312     0.64265     0.60334     0.51991     0.37254     0.21748     0.13954     0.13164     0.15820     0.18679    
 0.19782     0.18679     0.15820     0.13164     0.13954     0.21748     0.37254     0.51991     0.60334     0.64265    
 0.66312     0.67685     0.68718     0.69391     0.69550     0.69332     0.68706     0.67740     0.66441     0.64460    
 0.60564     0.52185     0.37295     0.21617     0.13727     0.12805     0.15247     0.17910     0.18940     0.17910    
 0.15247     0.12805     0.13727     0.21617     0.37295     0.52185     0.60564     0.64460     0.66441     0.67740    
 0.68706     0.69332     0.69332     0.69110     0.68473     0.67487     0.66137     0.64019     0.59827     0.50978    
 0.35883     0.20907     0.13913     0.13748     0.16952     0.20182     0.21410     0.20182     0.16952     0.13748    
 0.13913     0.20907     0.35883     0.50978     0.59827     0.64019     0.66137     0.67487     0.68473     0.69110    
 0.68706     0.68473     0.67805     0.66750     0.65216     0.62641     0.57515     0.47333     0.31998     0.19202    
 0.14672     0.16800     0.22400     0.27355     0.29168     0.27355     0.22400     0.16800     0.14672     0.19202    
 0.31998     0.47333     0.57515     0.62641     0.65216     0.66750     0.67805     0.68473     0.67740     0.67487    
 0.66750     0.65522     0.63561     0.60047     0.53231     0.41207     0.26615     0.17444     0.16510     0.22499    
 0.31950     0.39281     0.41822     0.39281     0.31950     0.22499     0.16510     0.17444     0.26615     0.41207    
 0.53231     0.60047     0.63561     0.65522     0.66750     0.67487     0.66441     0.66137     0.65216     0.63561    
 0.60697     0.55490     0.46235     0.32946     0.21136     0.16527     0.20003     0.30979     0.44191     0.53002    
 0.55853     0.53002     0.44191     0.30979     0.20003     0.16527     0.21136     0.32946     0.46235     0.55490    
 0.60697     0.63561     0.65216     0.66137     0.64460     0.64019     0.62641     0.60047     0.55490     0.47725    
 0.36226     0.24138     0.16984     0.17038     0.25248     0.40581     0.55334     0.63951     0.66598     0.63951    
 0.55334     0.40581     0.25248     0.17038     0.16984     0.24138     0.36226     0.47725     0.55490     0.60047    
 0.62641     0.64019     0.60564     0.59827     0.57515     0.53231     0.46235     0.36226     0.25238     0.17395    
 0.15071     0.19132     0.30987     0.47933     0.62062     0.69873     0.72242     0.69873     0.62062     0.47933    
 0.30987     0.19132     0.15071     0.17395     0.25238     0.36226     0.46235     0.53231     0.57515     0.59827    
 0.52185     0.50978     0.47333     0.41207     0.32946     0.24138     0.17395     0.14414     0.15736     0.22292    
 0.34847     0.50479     0.63365     0.70749     0.73045     0.70749     0.63365     0.50479     0.34847     0.22292    
 0.15736     0.14414     0.17395     0.24138     0.32946     0.41207     0.47333     0.50978     0.37295     0.35883    
 0.31998     0.26615     0.21136     0.16984     0.15071     0.15736     0.19152     0.25633     0.35535     0.47868    
 0.59256     0.66572     0.68986     0.66572     0.59256     0.47868     0.35535     0.25633     0.19152     0.15736    
 0.15071     0.16984     0.21136     0.26615     0.31998     0.35883     0.21617     0.20907     0.19202     0.17444    
 0.16527     0.17038     0.19132     0.22292     0.25633     0.29174     0.34204     0.41663     0.50229     0.56839    
 0.59250     0.56839     0.50229     0.41663     0.34204     0.29174     0.25633     0.22292     0.19132     0.17038    
 0.16527     0.17444     0.19202     0.20907     0.13727     0.13913     0.14672     0.16510     0.20003     0.25248    
 0.30987     0.34847     0.35535     0.34204     0.33365     0.34860     0.38599     0.42548     0.44218     0.42548    
 0.38599     0.34860     0.33365     0.34204     0.35535     0.34847     0.30987     0.25248     0.20003     0.16510    
 0.14672     0.13913     0.12805     0.13748     0.16800     0.22499     0.30979     0.40581     0.47933     0.50479    
 0.47868     0.41663     0.34860     0.30176     0.28318     0.28252     0.28466     0.28252     0.28318     0.30176    
 0.34860     0.41663     0.47868     0.50479     0.47933     0.40581     0.30979     0.22499     0.16800     0.13748    
 0.15247     0.16952     0.22400     0.31950     0.44191     0.55334     0.62062     0.63365     0.59256     0.50229    
 0.38599     0.28318     0.21689     0.18403     0.17452     0.18403     0.21689     0.28318     0.38599     0.50229    
 0.59256     0.63365     0.62062     0.55334     0.44191     0.31950     0.22400     0.16952     0.17910     0.20182    
 0.27355     0.39281     0.53002     0.63951     0.69873     0.70749     0.66572     0.56839     0.42548     0.28252    
 0.18403     0.13428     0.11980     0.13428     0.18403     0.28252     0.42548     0.56839     0.66572     0.70749    
 0.69873     0.63951     0.53002     0.39281     0.27355     0.20182     0.18940     0.21410     0.29168     0.41822    
 0.55853     0.66598     0.72242     0.73045     0.68986     0.59250     0.44218     0.28466     0.17452     0.11980    
 0.10419     0.11980     0.17452     0.28466     0.44218     0.59250     0.68986     0.73045     0.72242     0.66598    
 0.55853     0.41822     0.29168     0.21410     0.17910     0.20182     0.27355     0.39281     0.53002     0.63951    
 0.69873     0.70749     0.66572     0.56839     0.42548     0.28252     0.18403     0.13428     0.11980     0.13428    
 0.18403     0.28252     0.42548     0.56839     0.66572     0.70749     0.69873     0.63951     0.53002     0.39281    
 0.27355     0.20182     0.15247     0.16952     0.22400     0.31950     0.44191     0.55334     0.62062     0.63365    
 0.59256     0.50229     0.38599     0.28318     0.21689     0.18403     0.17452     0.18403     0.21689     0.28318    
 0.38599     0.50229     0.59256     0.63365     0.62062     0.55334     0.44191     0.31950     0.22400     0.16952    
 0.12805     0.13748     0.16800     0.22499     0.30979     0.40581     0.47933     0.50479     0.47868     0.41663    
 0.34860     0.30176     0.28318     0.28252     0.28466     0.28252     0.28318     0.30176     0.34860     0.41663    
 0.47868     0.50479     0.47933     0.40581     0.30979     0.22499     0.16800     0.13748     0.13727     0.13913    
 0.14672     0.16510     0.20003     0.25248     0.30987     0.34847     0.35535     0.34204     0.33365     0.34860    
 0.38599     0.42548     0.44218     0.42548     0.38599     0.34860     0.33365     0.34204     0.35535     0.34847    
 0.30987     0.25248     0.20003     0.16510     0.14672     0.13913     0.21617     0.20907     0.19202     0.17444    
 0.16527     0.17038     0.19132     0.22292     0.25633     0.29174     0.34204     0.41663     0.50229     0.56839    
 0.59250     0.56839     0.50229     0.41663     0.34204     0.29174     0.25633     0.22292     0.19132     0.17038    
 0.16527     0.17444     0.19202     0.20907     0.37295     0.35883     0.31998     0.26615     0.21136     0.16984    
 0.15071     0.15736     0.19152     0.25633     0.35535     0.47868     0.59256     0.66572     0.68986     0.66572    
 0.59256     0.47868     0.35535     0.25633     0.19152     0.15736     0.15071     0.16984     0.21136     0.26615    
 0.31998     0.35883     0.52185     0.50978     0.47333     0.41207     0.32946     0.24138     0.17395     0.14414    
 0.15736     0.22292     0.34847     0.50479     0.63365     0.70749     0.73045     0.70749     0.63365     0.50479    
 0.34847     0.22292     0.15736     0.14414     0.17395     0.24138     0.32946     0.41207     0.47333     0.50978    
 0.60564     0.59827     0.57515     0.53231     0.46235     0.36226     0.25238     0.17395     0.15071     0.19132    
 0.30987     0.47933     0.62062     0.69873     0.72242     0.69873     0.62062     0.47933     0.30987     0.19132    
 0.15071     0.17395     0.25238     0.36226     0.46235     0.53231     0.57515     0.59827     0.64460     0.64019    
 0.62641     0.60047     0.55490     0.47725     0.36226     0.24138     0.16984     0.17038     0.25248     0.40581    
 0.55334     0.63951     0.66598     0.63951     0.55334     0.40581     0.25248     0.17038     0.16984     0.24138    
 0.36226     0.47725     0.55490     0.60047     0.62641     0.64019     0.66441     0.66137     0.65216     0.63561    
 0.60697     0.55490     0.46235     0.32946     0.21136     0.16527     0.20003     0.30979     0.44191     0.53002    
 0.55853     0.53002     0.44191     0.30979     0.20003     0.16527     0.21136     0.32946     0.46235     0.55490    
 0.60697     0.63561     0.65216     0.66137     0.67740     0.67487     0.66750     0.65522     0.63561     0.60047    
 0.53231     0.41207     0.26615     0.17444     0.16510     0.22499     0.31950     0.39281     0.41822     0.39281    
 0.31950     0.22499     0.16510     0.17444     0.26615     0.41207     0.53231     0.60047     0.63561     0.65522    
 0.66750     0.67487     0.68706     0.68473     0.67805     0.66750     0.65216     0.62641     0.57515     0.47333    
 0.31998     0.19202     0.14672     0.16800     0.22400     0.27355     0.29168     0.27355     0.22400     0.16800    
 0.14672     0.19202     0.31998     0.47333     0.57515     0.62641     0.65216     0.66750     0.67805     0.68473    
 0.69332     0.69110     0.68473     0.67487     0.66137     0.64019     0.59827     0.50978     0.35883     0.20907    
 0.13913     0.13748     0.16952     0.20182     0.21410     0.20182     0.16952     0.13748     0.13913     0.20907    
 0.35883     0.50978     0.59827     0.64019     0.66137     0.67487     0.68473     0.69110     0.68647     0.68465    
 0.67940     0.67099     0.65834     0.63584     0.58831     0.48913     0.33184     0.19314     0.13746     0.14583    
 0.18488     0.22068     0.23391     0.22068     0.18488     0.14583     0.13746     0.19314     0.33184     0.48913    
 0.58831     0.63584     0.65834     0.67099     0.67940     0.68465     0.68465     0.68278     0.67738     0.66865    
 0.65527     0.63108     0.58032     0.47681     0.31957     0.18860     0.14096     0.15716     0.20461     0.24655    
 0.26189     0.24655     0.20461     0.15716     0.14096     0.18860     0.31957     0.47681     0.58032     0.63108    
 0.65527     0.66865     0.67738     0.68278     0.67940     0.67738     0.67149     0.66165     0.64567     0.61593    
 0.55503     0.43974     0.28606     0.17808     0.15355     0.19503     0.27030     0.33194     0.35389     0.33194    
 0.27030     0.19503     0.15355     0.17808     0.28606     0.43974     0.55503     0.61593     0.64567     0.66165    
 0.67149     0.67738     0.67099     0.66865     0.66165     0.64920     0.62757     0.58675     0.50811     0.37864    
 0.24066     0.16916     0.18144     0.26955     0.39205     0.48138     0.51144     0.48138     0.39205     0.26955    
 0.18144     0.16916     0.24066     0.37864     0.50811     0.58675     0.62757     0.64920     0.66165     0.66865    
 0.65834     0.65527     0.64567     0.62757     0.59493     0.53528     0.43345     0.30011     0.19687     0.17057    
 0.23321     0.38496     0.55056     0.65133     0.68224     0.65133     0.55056     0.38496     0.23321     0.17057    
 0.19687     0.30011     0.43345     0.53528     0.59493     0.62757     0.64567     0.65527     0.63584     0.63108    
 0.61593     0.58675     0.53528     0.45025     0.33312     0.22256     0.16776     0.18948     0.31088     0.51504    
 0.68691     0.77440     0.79922     0.77440     0.68691     0.51504     0.31088     0.18948     0.16776     0.22256    
 0.33312     0.45025     0.53528     0.58675     0.61593     0.63108     0.58831     0.58032     0.55503     0.50811    
 0.43345     0.33312     0.23266     0.16905     0.16149     0.22763     0.39436     0.61074     0.76339     0.83479    
 0.85447     0.83479     0.76339     0.61074     0.39436     0.22763     0.16149     0.16905     0.23266     0.33312    
 0.43345     0.50811     0.55503     0.58032     0.48913     0.47681     0.43974     0.37864     0.30011     0.22256    
 0.16905     0.15267     0.18182     0.27558     0.44776     0.64472     0.78196     0.84782     0.86625     0.84782    
 0.78196     0.64472     0.44776     0.27558     0.18182     0.15267     0.16905     0.22256     0.30011     0.37864    
 0.43974     0.47681     0.33184     0.31957     0.28606     0.24066     0.19687     0.16776     0.16149     0.18182    
 0.23186     0.31931     0.45418     0.61620     0.74738     0.81877     0.83991     0.81877     0.74738     0.61620    
 0.45418     0.31931     0.23186     0.18182     0.16149     0.16776     0.19687     0.24066     0.28606     0.31957    
 0.19314     0.18860     0.17808     0.16916     0.17057     0.18948     0.22763     0.27558     0.31931     0.36317    
 0.43202     0.53888     0.65440     0.73353     0.75986     0.73353     0.65440     0.53888     0.43202     0.36317    
 0.31931     0.27558     0.22763     0.18948     0.17057     0.16916     0.17808     0.18860     0.13746     0.14096    
 0.15355     0.18144     0.23321     0.31088     0.39436     0.44776     0.45418     0.43202     0.42038     0.44880    
 0.51332     0.57712     0.60272     0.57712     0.51332     0.44880     0.42038     0.43202     0.45418     0.44776    
 0.39436     0.31088     0.23321     0.18144     0.15355     0.14096     0.14583     0.15716     0.19503     0.26955    
 0.38496     0.51504     0.61074     0.64472     0.61620     0.53888     0.44880     0.38999     0.37691     0.39035    
 0.39970     0.39035     0.37691     0.38999     0.44880     0.53888     0.61620     0.64472     0.61074     0.51504    
 0.38496     0.26955     0.19503     0.15716     0.18488     0.20461     0.27030     0.39205     0.55056     0.68691    
 0.76339     0.78196     0.74738     0.65440     0.51332     0.37691     0.29115     0.25358     0.24415     0.25358    
 0.29115     0.37691     0.51332     0.65440     0.74738     0.78196     0.76339     0.68691     0.55056     0.39205    
 0.27030     0.20461     0.22068     0.24655     0.33194     0.48138     0.65133     0.77440     0.83479     0.84782    
 0.81877     0.73353     0.57712     0.39035     0.25358     0.18640     0.16760     0.18640     0.25358     0.39035    
 0.57712     0.73353     0.81877     0.84782     0.83479     0.77440     0.65133     0.48138     0.33194     0.24655    
 0.23391     0.26189     0.35389     0.51144     0.68224     0.79922     0.85447     0.86625     0.83991     0.75986    
 0.60272     0.39970     0.24415     0.16760     0.14639     0.16760     0.24415     0.39970     0.60272     0.75986    
 0.83991     0.86625     0.85447     0.79922     0.68224     0.51144     0.35389     0.26189     0.22068     0.24655    
 0.33194     0.48138     0.65133     0.77440     0.83479     0.84782     0.81877     0.73353     0.57712     0.39035    
 0.25358     0.18640     0.16760     0.18640     0.25358     0.39035     0.57712     0.73353     0.81877     0.84782    
 0.83479     0.77440     0.65133     0.48138     0.33194     0.24655     0.18488     0.20461     0.27030     0.39205    
 0.55056     0.68691     0.76339     0.78196     0.74738     0.65440     0.51332     0.37691     0.29115     0.25358    
 0.24415     0.25358     0.29115     0.37691     0.51332     0.65440     0.74738     0.78196     0.76339     0.68691    
 0.55056     0.39205     0.27030     0.20461     0.14583     0.15716     0.19503     0.26955     0.38496     0.51504    
 0.61074     0.64472     0.61620     0.53888     0.44880     0.38999     0.37691     0.39035     0.39970     0.39035    
 0.37691     0.38999     0.44880     0.53888     0.61620     0.64472     0.61074     0.51504     0.38496     0.26955    
 0.19503     0.15716     0.13746     0.14096     0.15355     0.18144     0.23321     0.31088     0.39436     0.44776    
 0.45418     0.43202     0.42038     0.44880     0.51332     0.57712     0.60272     0.57712     0.51332     0.44880    
 0.42038     0.43202     0.45418     0.44776     0.39436     0.31088     0.23321     0.18144     0.15355     0.14096    
 0.19314     0.18860     0.17808     0.16916     0.17057     0.18948     0.22763     0.27558     0.31931     0.36317    
 0.43202     0.53888     0.65440     0.73353     0.75986     0.73353     0.65440     0.53888     0.43202     0.36317    
 0.31931     0.27558     0.22763     0.18948     0.17057     0.16916     0.17808     0.18860     0.33184     0.31957    
 0.28606     0.24066     0.19687     0.16776     0.16149     0.18182     0.23186     0.31931     0.45418     0.61620    
 0.74738     0.81877     0.83991     0.81877     0.74738     0.61620     0.45418     0.31931     0.23186     0.18182    
 0.16149     0.16776     0.19687     0.24066     0.28606     0.31957     0.48913     0.47681     0.43974     0.37864    
 0.30011     0.22256     0.16905     0.15267     0.18182     0.27558     0.44776     0.64472     0.78196     0.84782    
 0.86625     0.84782     0.78196     0.64472     0.44776     0.27558     0.18182     0.15267     0.16905     0.22256    
 0.30011     0.37864     0.43974     0.47681     0.58831     0.58032     0.55503     0.50811     0.43345     0.33312    
 0.23266     0.16905     0.16149     0.22763     0.39436     0.61074     0.76339     0.83479     0.85447     0.83479    
 0.76339     0.61074     0.39436     0.22763     0.16149     0.16905     0.23266     0.33312     0.43345     0.50811    
 0.55503     0.58032     0.63584     0.63108     0.61593     0.58675     0.53528     0.45025     0.33312     0.22256    
 0.16776     0.18948     0.31088     0.51504     0.68691     0.77440     0.79922     0.77440     0.68691     0.51504    
 0.31088     0.18948     0.16776     0.22256     0.33312     0.45025     0.53528     0.58675     0.61593     0.63108    
 0.65834     0.65527     0.64567     0.62757     0.59493     0.53528     0.43345     0.30011     0.19687     0.17057    
 0.23321     0.38496     0.55056     0.65133     0.68224     0.65133     0.55056     0.38496     0.23321     0.17057    
 0.19687     0.30011     0.43345     0.53528     0.59493     0.62757     0.64567     0.65527     0.67099     0.66865    
 0.66165     0.64920     0.62757     0.58675     0.50811     0.37864     0.24066     0.16916     0.18144     0.26955    
 0.39205     0.48138     0.51144     0.48138     0.39205     0.26955     0.18144     0.16916     0.24066     0.37864    
 0.50811     0.58675     0.62757     0.64920     0.66165     0.66865     0.67940     0.67738     0.67149     0.66165    
 0.64567     0.61593     0.55503     0.43974     0.28606     0.17808     0.15355     0.19503     0.27030     0.33194    
 0.35389     0.33194     0.27030     0.19503     0.15355     0.17808     0.28606     0.43974     0.55503     0.61593    
 0.64567     0.66165     0.67149     0.67738     0.68465     0.68278     0.67738     0.66865     0.65527     0.63108    
 0.58032     0.47681     0.31957     0.18860     0.14096     0.15716     0.20461     0.24655     0.26189     0.24655    
 0.20461     0.15716     0.14096     0.18860     0.31957     0.47681     0.58032     0.63108     0.65527     0.66865    
 0.67738     0.68278     0.67177     0.67040     0.66627     0.65873     0.64455     0.61458     0.54971     0.42721    
 0.27113     0.16800     0.14578     0.18207     0.24456     0.29405     0.31147     0.29405     0.24456     0.18207    
 0.14578     0.16800     0.27113     0.42721     0.54971     0.61458     0.64455     0.65873     0.66627     0.67040    
 0.67040     0.66895     0.66458     0.65651     0.64120     0.60902     0.54056     0.41502     0.26218     0.16672    
 0.15158     0.19590     0.26641     0.32092     0.33992     0.32092     0.26641     0.19590     0.15158     0.16672    