       N       E                     dE             d eps       ncg     rms          rms(c)
DAV:   1     0.371219164957E+03    0.37122E+03   -0.25972E+04 17280   0.175E+03
DAV:   2     0.962685310017E+01   -0.36159E+03   -0.34409E+03 19512   0.430E+02
DAV:   3    -0.114454846370E+02   -0.21072E+02   -0.20745E+02 21856   0.943E+01
DAV:   4    -0.122031781923E+02   -0.75769E+00   -0.75683E+00 23208   0.152E+01
DAV:   5    -0.122233103583E+02   -0.20132E-01   -0.20131E-01 22256   0.212E+00    0.164E+02
DAV:   6    -0.778752909121E+01    0.44358E+01   -0.57501E+00 22328   0.207E+01    0.101E+02
DAV:   7    -0.743404050641E+01    0.35349E+00   -0.76700E+00 28568   0.172E+01    0.180E+01
DAV:   8    -0.732910510806E+01    0.10494E+00   -0.10948E+00 20648   0.861E+00    0.379E+00
DAV:   9    -0.733948865338E+01   -0.10384E-01   -0.70261E-02 20248   0.199E+00    0.797E-01
DAV:  10    -0.733805608602E+01    0.14326E-02   -0.10112E-02 20024   0.862E-01    0.102E-01
DAV:  11    -0.733807818434E+01   -0.22098E-04   -0.11261E-03 23016   0.231E-01    0.732E-02
DAV:  12    -0.733808230446E+01   -0.41201E-05   -0.16179E-04 16304   0.102E-01
   1 F= -.73380823E+01 E0= -.73381278E+01  d E =0.136618E-03
