 vasp.6.4.3 19Mar24 (build Jul 15 2024 11:39:06) complex                         
 executed on             LinuxGNU date 2025.10.22  15:59:53
 running   64 mpi-ranks, on    1 nodes
 distrk:  each k-point on   64 cores,    1 groups
 distr:  one band on NCORE=  16 cores,    4 groups


--------------------------------------------------------------------------------------------------------


 INCAR:
   SYSTEM = sys
   LWAVE = .FALSE.
   PREC = Accurate
   LELF = .TRUE.
   ENCUT = 700
   ISMEAR = 1
   SIGMA = 0.1
   SYMPREC = 1e-4
   NELM = 400
   NPAR = 4

 POTCAR:    PAW_PBE Ca_sv 06Sep2000               
 POTCAR:    PAW_PBE Y_sv 25May2007                
 POTCAR:    PAW_PBE H 15Jun2001                   
 POTCAR:    PAW_PBE Ca_sv 06Sep2000               
   SHA256 =  a47365830e737f14e0e6c5cf1ed81b94e081eecf0a33df105380881bc9da05d5 Ca_sv/POTCAR          
   COPYR  = (c) Copyright 06Sep2000 Georg Kresse                                                    
   COPYR  = This file is part of the software VASP. Any use, copying, and all other rights are regul
   COPYR  = If you do not have a valid VASP license, you may not use, copy or distribute this file. 
   VRHFIN =Ca: 3s3p4s                                                                               
   LEXCH  = PE                                                                                      
   EATOM  =  1006.0909 eV,   73.9456 Ry                                                             
                                                                                                    
   TITEL  = PAW_PBE Ca_sv 06Sep2000                                                                 
   LULTRA =        F    use ultrasoft PP ?                                                          
   IUNSCR =        1    unscreen: 0-lin 1-nonlin 2-no                                               
   RPACOR =    2.000    partial core radius                                                         
   POMASS =   40.078; ZVAL   =   10.000    mass and valenz                                          
   RCORE  =    2.300    outmost cutoff radius                                                       
   RWIGS  =    2.500; RWIGS  =    1.323    wigner-seitz radius (au A)                               
   ENMAX  =  266.622; ENMIN  =  199.967 eV                                                          
   RCLOC  =    1.808    cutoff for local pot                                                        
   LCOR   =        T    correct aug charges                                                         
   LPAW   =        T    paw PP                                                                      
   EAUG   =  420.852                                                                                
   RMAX   =    2.359    core radius for proj-oper                                                   
   RAUG   =    1.300    factor for augmentation sphere                                              
   RDEP   =    2.392    radius for radial grids                                                     
   RDEPT  =    1.987    core radius for aug-charge                                                  
                                                                                                    
   Atomic configuration                                                                             
    7 entries                                                                                       
     n  l   j            E        occ.                                                              
     1  0  0.50     -3949.1705   2.0000                                                             
     2  0  0.50      -414.3434   2.0000                                                             
     2  1  1.50      -334.7047   6.0000                                                             
     3  0  0.50       -47.0896   2.0000                                                             
     4  0  0.50        -3.7663   2.0000                                                             
     3  1  1.50       -28.0061   6.0000                                                             
     3  2  1.50        -4.0817   0.0000                                                             
   Description                                                                                      
     l       E           TYP  RCUT    TYP  RCUT                                                     
     0    -47.0896403     23  2.300                                                                 
     0     -3.7663320     23  2.300                                                                 
     1    -28.0060855     23  2.300                                                                 
     1      6.8029130     23  2.300                                                                 
     2     -4.0817478     23  2.300                                                                 
     2      0.4464412     23  2.300                                                                 
  local pseudopotential read in
  partial core-charges read in
  partial kinetic energy density read in
  atomic valenz-charges read in
  non local Contribution for L=           0  read in
    real space projection operators read in
  non local Contribution for L=           0  read in
    real space projection operators read in
  non local Contribution for L=           1  read in
    real space projection operators read in
  non local Contribution for L=           1  read in
    real space projection operators read in
  non local Contribution for L=           2  read in
    real space projection operators read in
  non local Contribution for L=           2  read in
    real space projection operators read in
    PAW grid and wavefunctions read in

   number of l-projection  operators is LMAX  =           6
   number of lm-projection operators is LMMAX =          18

 POTCAR:    PAW_PBE Y_sv 25May2007                
   SHA256 =  5e7f7496c6fa99024fec326bcd60dcee8ff7e886f9613d31da35c685a538a036 Y_sv/POTCAR           
   COPYR  = (c) Copyright 25May2007 Georg Kresse                                                    
   COPYR  = This file is part of the software VASP. Any use, copying, and all other rights are regul
   COPYR  = If you do not have a valid VASP license, you may not use, copy or distribute this file. 
   VRHFIN =Y: 4s4p5s4d                                                                              
   LEXCH  = PE                                                                                      
   EATOM  =  1046.9140 eV,   76.9460 Ry                                                             
                                                                                                    
   TITEL  = PAW_PBE Y_sv 25May2007                                                                  
   LULTRA =        F    use ultrasoft PP ?                                                          
   IUNSCR =        1    unscreen: 0-lin 1-nonlin 2-no                                               
   RPACOR =    2.200    partial core radius                                                         
   POMASS =   88.906; ZVAL   =   11.000    mass and valenz                                          
   RCORE  =    2.800    outmost cutoff radius                                                       
   RWIGS  =    3.430; RWIGS  =    1.815    wigner-seitz radius (au A)                               
   ENMAX  =  202.626; ENMIN  =  151.970 eV                                                          
   RCLOC  =    2.212    cutoff for local pot                                                        
   LCOR   =        T    correct aug charges                                                         
   LPAW   =        T    paw PP                                                                      
   EAUG   =  470.889                                                                                
   DEXC   =    0.000                                                                                
   RMAX   =    2.863    core radius for proj-oper                                                   
   RAUG   =    1.300    factor for augmentation sphere                                              
   RDEP   =    2.926    radius for radial grids                                                     
   RDEPT  =    2.280    core radius for aug-charge                                                  
                                                                                                    
   Atomic configuration                                                                             
   11 entries                                                                                       
     n  l   j            E        occ.                                                              
     1  0  0.50    -16863.0720   2.0000                                                             
     2  0  0.50     -2309.2881   2.0000                                                             
     2  1  1.50     -2055.5536   6.0000                                                             
     3  0  0.50      -367.1837   2.0000                                                             
     3  1  1.50      -284.8912   6.0000                                                             
     3  2  2.50      -149.4324  10.0000                                                             
     4  0  0.50       -46.3345   2.0000                                                             
     5  0  0.50        -3.6387   1.0000                                                             
     4  1  1.50       -26.3769   6.0000                                                             
     4  2  2.50        -1.6291   2.0000                                                             
     4  3  2.50        -1.3606   0.0000                                                             
   Description                                                                                      
     l       E           TYP  RCUT    TYP  RCUT                                                     
     0    -46.3344714     23  2.600                                                                 
     0     -3.6387002     23  2.700                                                                 
     1    -26.3769044     23  2.600                                                                 
     1    -27.7374870     23  2.600                                                                 
     2     -1.6291019     23  2.600                                                                 
     2      0.1354037     23  2.600                                                                 
     3     -1.3605826     23  2.800                                                                 
  local pseudopotential read in
  partial core-charges read in
  partial kinetic energy density read in
  atomic valenz-charges read in
  non local Contribution for L=           0  read in
    real space projection operators read in
  non local Contribution for L=           0  read in
    real space projection operators read in
  non local Contribution for L=           1  read in
    real space projection operators read in
  non local Contribution for L=           1  read in
    real space projection operators read in
  non local Contribution for L=           2  read in
    real space projection operators read in
  non local Contribution for L=           2  read in
    real space projection operators read in
  non local Contribution for L=           3  read in
    real space projection operators read in
    PAW grid and wavefunctions read in

   number of l-projection  operators is LMAX  =           7
   number of lm-projection operators is LMMAX =          25

 POTCAR:    PAW_PBE H 15Jun2001                   
   SHA256 =  030f79b5d3ab3cf0e668861823c8fb652ff669f3e15e46930bd03bfd63a607b6 H/POTCAR              
   COPYR  = (c) Copyright 15Jun2001 Georg Kresse                                                    
   COPYR  = This file is part of the software VASP. Any use, copying, and all other rights are regul
   COPYR  = If you do not have a valid VASP license, you may not use, copy or distribute this file. 
   VRHFIN =H: ultrasoft test                                                                        
   LEXCH  = PE                                                                                      
   EATOM  =    12.4884 eV,    0.9179 Ry                                                             
                                                                                                    
   TITEL  = PAW_PBE H 15Jun2001                                                                     
   LULTRA =        F    use ultrasoft PP ?                                                          
   IUNSCR =        0    unscreen: 0-lin 1-nonlin 2-no                                               
   RPACOR =    0.000    partial core radius                                                         
   POMASS =    1.000; ZVAL   =    1.000    mass and valenz                                          
   RCORE  =    1.100    outmost cutoff radius                                                       
   RWIGS  =    0.700; RWIGS  =    0.370    wigner-seitz radius (au A)                               
   ENMAX  =  250.000; ENMIN  =  200.000 eV                                                          
   RCLOC  =    0.701    cutoff for local pot                                                        
   LCOR   =        T    correct aug charges                                                         
   LPAW   =        T    paw PP                                                                      
   EAUG   =  400.000                                                                                
   RMAX   =    1.123    core radius for proj-oper                                                   
   RAUG   =    1.200    factor for augmentation sphere                                              
   RDEP   =    1.112    radius for radial grids                                                     
   RDEPT  =    0.926    core radius for aug-charge                                                  
                                                                                                    
   Atomic configuration                                                                             
    2 entries                                                                                       
     n  l   j            E        occ.                                                              
     1  0  0.50        -6.4927   1.0000                                                             
     2  1  0.50        -3.4015   0.0000                                                             
   Description                                                                                      
     l       E           TYP  RCUT    TYP  RCUT                                                     
     0     -6.4927494     23  1.100                                                                 
     0      6.8029130     23  1.100                                                                 
     1     -4.0817478     23  1.100                                                                 
  local pseudopotential read in
  atomic valenz-charges read in
  non local Contribution for L=           0  read in
    real space projection operators read in
  non local Contribution for L=           0  read in
    real space projection operators read in
  non local Contribution for L=           1  read in
    real space projection operators read in
    PAW grid and wavefunctions read in

   number of l-projection  operators is LMAX  =           3
   number of lm-projection operators is LMMAX =           5

 -----------------------------------------------------------------------------
|                                                                             |
|               ----> ADVICE to this user running VASP <----                  |
|                                                                             |
|     You have a (more or less) 'large supercell' and for larger cells it     |
|     might be more efficient to use real-space projection operators.         |
|     Therefore, try LREAL= Auto in the INCAR file.                           |
|     Mind: For very accurate calculation, you might also keep the            |
|     reciprocal projection scheme (i.e. LREAL=.FALSE.).                      |
|                                                                             |
 -----------------------------------------------------------------------------

 WARNING: PSMAXN for non-local potential too small
          PSMAXN should be >   13.554559223799082       NTYP=           2
  PAW_PBE Ca_sv 06Sep2000               :
 energy of atom  1       EATOM=-1006.0909
 kinetic energy error for atom=    0.0007 (will be added to EATOM!!)
  PAW_PBE Y_sv 25May2007                :
 energy of atom  2       EATOM=-1046.9140
 kinetic energy error for atom=    0.0003 (will be added to EATOM!!)
  PAW_PBE H 15Jun2001                   :
 energy of atom  3       EATOM=  -12.4884
 kinetic energy error for atom=    0.0002 (will be added to EATOM!!)


 POSCAR: CaYH20
  positions in cartesian coordinates
  velocities in cartesian coordinates
  No initial velocities read in


 exchange-correlation table for PE
   RHO(1)=    0.500       N(1)  =     2000
   RHO(2)=  100.500       N(2)  =     4000



--------------------------------------------------------------------------------------------------------


 ion  position               nearest neighbor table
   1  1.000  1.000  1.000-  19 1.71  22 1.71  21 1.71  20 1.71  16 1.71  18 1.71  17 1.71  15 1.71
                             7 1.73  10 1.73   7 1.73  10 1.73   9 1.73   8 1.73   9 1.73   8 1.73
   2  0.500  0.500  0.500-  20 1.76  20 1.76  21 1.76  21 1.76  15 1.76  15 1.76  17 1.76  17 1.76
                            22 1.76  19 1.76  19 1.76  22 1.76  16 1.76  18 1.76  18 1.76  16 1.76
   3  0.256  0.500  0.116-   1 1.73   1 1.73   2 1.76
   4  0.744  0.500  0.116-   1 1.73   1 1.73   2 1.76
   5  0.500  0.256  0.116-   1 1.73   1 1.73   2 1.76
   6  0.500  0.744  0.116-   1 1.73   1 1.73   2 1.76
   7  0.744  0.500  0.884-   1 1.73   1 1.73   2 1.76
   8  0.256  0.500  0.884-   1 1.73   1 1.73   2 1.76
   9  0.500  0.256  0.884-   1 1.73   1 1.73   2 1.76
  10  0.500  0.744  0.884-   1 1.73   1 1.73   2 1.76
  11  1.000  0.500  0.758-   1 1.79   1 1.79   2 1.83   2 1.83
  12  0.500  1.000  0.758-   1 1.79   1 1.79   2 1.83   2 1.83
  13  1.000  0.500  0.242-   1 1.79   1 1.79   2 1.83   2 1.83
  14  0.500  1.000  0.242-   1 1.79   1 1.79   2 1.83   2 1.83
  15  0.237  1.000  0.373-   1 1.71   2 1.76   2 1.76
  16  0.763  1.000  0.373-   1 1.71   2 1.76   2 1.76
  17  1.000  0.237  0.373-   1 1.71   2 1.76   2 1.76
  18  1.000  0.763  0.373-   1 1.71   2 1.76   2 1.76
  19  0.763  1.000  0.627-   1 1.71   2 1.76   2 1.76
  20  0.237  1.000  0.627-   1 1.71   2 1.76   2 1.76
  21  1.000  0.237  0.627-   1 1.71   2 1.76   2 1.76
  22  1.000  0.763  0.627-   1 1.71   2 1.76   2 1.76

  LATTYP: Found a simple tetragonal cell.
 ALAT       =     2.9638000000
 C/A-ratio  =     1.4125480802
  
  Lattice vectors:
  
 A1 = (   2.9638000000,   0.0000000000,   0.0000000000)
 A2 = (   0.0000000000,   2.9638000000,   0.0000000000)
 A3 = (   0.0000000000,   0.0000000000,   4.1865100000)


Analysis of symmetry for initial positions (statically):
=====================================================================
 Subroutine PRICEL returns:
 Original cell was already a primitive cell.
 

 Routine SETGRP: Setting up the symmetry group for a 
 simple tetragonal supercell.


 Subroutine GETGRP returns: Found 16 space group operations
 (whereof 16 operations were pure point group operations)
 out of a pool of 16 trial point group operations.


The static configuration has the point symmetry D_4h.


Analysis of symmetry for dynamics (positions and initial velocities):
=====================================================================
 Subroutine PRICEL returns:
 Original cell was already a primitive cell.
 

 Routine SETGRP: Setting up the symmetry group for a 
 simple tetragonal supercell.


 Subroutine GETGRP returns: Found 16 space group operations
 (whereof 16 operations were pure point group operations)
 out of a pool of 16 trial point group operations.


The dynamic configuration has the point symmetry D_4h.


 Subroutine INISYM returns: Found 16 space group operations
 (whereof 16 operations are pure point group operations),
 and found     1 'primitive' translations


----------------------------------------------------------------------------------------

                                     Primitive cell                                     

  volume of cell :      36.7748

  direct lattice vectors                    reciprocal lattice vectors
     2.963800000  0.000000000  0.000000000     0.337404683  0.000000000  0.000000000
     0.000000000  2.963800000  0.000000000     0.000000000  0.337404683  0.000000000
     0.000000000  0.000000000  4.186510000     0.000000000  0.000000000  0.238862442

  length of vectors
     2.963800000  2.963800000  4.186510000     0.337404683  0.337404683  0.238862442

  position of ions in fractional coordinates (direct lattice)
     0.999999663  0.999999663  0.999997134
     0.499999663  0.499999663  0.499998567
     0.256399892  0.499999663  0.115799795
     0.743599771  0.499999663  0.115799795
     0.499999663  0.256399892  0.115799795
     0.499999663  0.743599771  0.115799795
     0.743599771  0.499999663  0.884197577
     0.256399892  0.499999663  0.884197577
     0.499999663  0.256399892  0.884197577
     0.499999663  0.743599771  0.884197577
     0.999999663  0.499999663  0.758297962
     0.499999663  0.999999663  0.758297962
     0.999999663  0.499999663  0.241699411
     0.499999663  0.999999663  0.241699411
     0.237300088  0.999999663  0.373198917
     0.762699912  0.999999663  0.373198917
     0.999999663  0.237300088  0.373198917
     0.999999663  0.762699912  0.373198917
     0.762699912  0.999999663  0.626798216
     0.237300088  0.999999663  0.626798216
     0.999999663  0.237300088  0.626798216
     0.999999663  0.762699912  0.626798216

  ion indices of the primitive-cell ions
   primitive index   ion index
                 1           1
                 2           2
                 3           3
                 4           4
                 5           5
                 6           6
                 7           7
                 8           8
                 9           9
                10          10
                11          11
                12          12
                13          13
                14          14
                15          15
                16          16
                17          17
                18          18
                19          19
                20          20
                21          21
                22          22

----------------------------------------------------------------------------------------



 KPOINTS: Regular k-point mesh                    

Automatic generation of k-mesh.
 Grid dimensions read from file:
 generate k-points for:   17   17   11

 Generating k-lattice:

  Cartesian coordinates                     Fractional coordinates (reciprocal lattice)
     0.019847334  0.000000000  0.000000000     0.058823529  0.000000000  0.000000000
     0.000000000  0.019847334  0.000000000     0.000000000  0.058823529  0.000000000
     0.000000000  0.000000000  0.021714767     0.000000000  0.000000000  0.090909091

  Length of vectors
     0.019847334  0.019847334  0.021714767

  Shift w.r.t. Gamma in fractional coordinates (k-lattice)
     0.000000000  0.000000000  0.000000000

 
 Subroutine IBZKPT returns following result:
 ===========================================
 
 Found    270 irreducible k-points:
 
 Following reciprocal coordinates:
            Coordinates               Weight
  0.000000  0.000000  0.000000      1.000000
  0.058824  0.000000  0.000000      4.000000
  0.117647  0.000000  0.000000      4.000000
  0.176471  0.000000  0.000000      4.000000
  0.235294  0.000000  0.000000      4.000000
  0.294118  0.000000  0.000000      4.000000
  0.352941  0.000000  0.000000      4.000000
  0.411765  0.000000  0.000000      4.000000
  0.470588  0.000000  0.000000      4.000000
  0.058824  0.058824  0.000000      4.000000
  0.117647  0.058824  0.000000      8.000000
  0.176471  0.058824  0.000000      8.000000
  0.235294  0.058824  0.000000      8.000000
  0.294118  0.058824  0.000000      8.000000
  0.352941  0.058824  0.000000      8.000000
  0.411765  0.058824  0.000000      8.000000
  0.470588  0.058824  0.000000      8.000000
  0.117647  0.117647  0.000000      4.000000
  0.176471  0.117647  0.000000      8.000000
  0.235294  0.117647  0.000000      8.000000
  0.294118  0.117647  0.000000      8.000000
  0.352941  0.117647  0.000000      8.000000
  0.411765  0.117647  0.000000      8.000000
  0.470588  0.117647  0.000000      8.000000
  0.176471  0.176471  0.000000      4.000000
  0.235294  0.176471  0.000000      8.000000
  0.294118  0.176471  0.000000      8.000000
  0.352941  0.176471  0.000000      8.000000
  0.411765  0.176471  0.000000      8.000000
  0.470588  0.176471  0.000000      8.000000
  0.235294  0.235294  0.000000      4.000000
  0.294118  0.235294  0.000000      8.000000
  0.352941  0.235294  0.000000      8.000000
  0.411765  0.235294  0.000000      8.000000
  0.470588  0.235294  0.000000      8.000000
  0.294118  0.294118  0.000000      4.000000
  0.352941  0.294118  0.000000      8.000000
  0.411765  0.294118  0.000000      8.000000
  0.470588  0.294118  0.000000      8.000000
  0.352941  0.352941  0.000000      4.000000
  0.411765  0.352941  0.000000      8.000000
  0.470588  0.352941  0.000000      8.000000
  0.411765  0.411765  0.000000      4.000000
  0.470588  0.411765  0.000000      8.000000
  0.470588  0.470588  0.000000      4.000000
  0.000000  0.000000  0.090909      2.000000
  0.058824  0.000000  0.090909      8.000000
  0.117647  0.000000  0.090909      8.000000
  0.176471  0.000000  0.090909      8.000000
  0.235294  0.000000  0.090909      8.000000
  0.294118  0.000000  0.090909      8.000000
  0.352941  0.000000  0.090909      8.000000
  0.411765  0.000000  0.090909      8.000000
  0.470588  0.000000  0.090909      8.000000
  0.058824  0.058824  0.090909      8.000000
  0.117647  0.058824  0.090909     16.000000
  0.176471  0.058824  0.090909     16.000000
  0.235294  0.058824  0.090909     16.000000
  0.294118  0.058824  0.090909     16.000000
  0.352941  0.058824  0.090909     16.000000
  0.411765  0.058824  0.090909     16.000000
  0.470588  0.058824  0.090909     16.000000
  0.117647  0.117647  0.090909      8.000000
  0.176471  0.117647  0.090909     16.000000
  0.235294  0.117647  0.090909     16.000000
  0.294118  0.117647  0.090909     16.000000
  0.352941  0.117647  0.090909     16.000000
  0.411765  0.117647  0.090909     16.000000
  0.470588  0.117647  0.090909     16.000000
  0.176471  0.176471  0.090909      8.000000
  0.235294  0.176471  0.090909     16.000000
  0.294118  0.176471  0.090909     16.000000
  0.352941  0.176471  0.090909     16.000000
  0.411765  0.176471  0.090909     16.000000
  0.470588  0.176471  0.090909     16.000000
  0.235294  0.235294  0.090909      8.000000
  0.294118  0.235294  0.090909     16.000000
  0.352941  0.235294  0.090909     16.000000
  0.411765  0.235294  0.090909     16.000000
  0.470588  0.235294  0.090909     16.000000
  0.294118  0.294118  0.090909      8.000000
  0.352941  0.294118  0.090909     16.000000
  0.411765  0.294118  0.090909     16.000000
  0.470588  0.294118  0.090909     16.000000
  0.352941  0.352941  0.090909      8.000000
  0.411765  0.352941  0.090909     16.000000
  0.470588  0.352941  0.090909     16.000000
  0.411765  0.411765  0.090909      8.000000
  0.470588  0.411765  0.090909     16.000000
  0.470588  0.470588  0.090909      8.000000
  0.000000  0.000000  0.181818      2.000000
  0.058824  0.000000  0.181818      8.000000
  0.117647  0.000000  0.181818      8.000000
  0.176471  0.000000  0.181818      8.000000
  0.235294  0.000000  0.181818      8.000000
  0.294118  0.000000  0.181818      8.000000
  0.352941  0.000000  0.181818      8.000000
  0.411765  0.000000  0.181818      8.000000
  0.470588  0.000000  0.181818      8.000000
  0.058824  0.058824  0.181818      8.000000
  0.117647  0.058824  0.181818     16.000000
  0.176471  0.058824  0.181818     16.000000
  0.235294  0.058824  0.181818     16.000000
  0.294118  0.058824  0.181818     16.000000
  0.352941  0.058824  0.181818     16.000000
  0.411765  0.058824  0.181818     16.000000
  0.470588  0.058824  0.181818     16.000000
  0.117647  0.117647  0.181818      8.000000
  0.176471  0.117647  0.181818     16.000000
  0.235294  0.117647  0.181818     16.000000
  0.294118  0.117647  0.181818     16.000000
  0.352941  0.117647  0.181818     16.000000
  0.411765  0.117647  0.181818     16.000000
  0.470588  0.117647  0.181818     16.000000
  0.176471  0.176471  0.181818      8.000000
  0.235294  0.176471  0.181818     16.000000
  0.294118  0.176471  0.181818     16.000000
  0.352941  0.176471  0.181818     16.000000
  0.411765  0.176471  0.181818     16.000000
  0.470588  0.176471  0.181818     16.000000
  0.235294  0.235294  0.181818      8.000000
  0.294118  0.235294  0.181818     16.000000
  0.352941  0.235294  0.181818     16.000000
  0.411765  0.235294  0.181818     16.000000
  0.470588  0.235294  0.181818     16.000000
  0.294118  0.294118  0.181818      8.000000
  0.352941  0.294118  0.181818     16.000000
  0.411765  0.294118  0.181818     16.000000
  0.470588  0.294118  0.181818     16.000000
  0.352941  0.352941  0.181818      8.000000
  0.411765  0.352941  0.181818     16.000000
  0.470588  0.352941  0.181818     16.000000
  0.411765  0.411765  0.181818      8.000000
  0.470588  0.411765  0.181818     16.000000
  0.470588  0.470588  0.181818      8.000000
  0.000000  0.000000  0.272727      2.000000
  0.058824  0.000000  0.272727      8.000000
  0.117647  0.000000  0.272727      8.000000
  0.176471  0.000000  0.272727      8.000000
  0.235294  0.000000  0.272727      8.000000
  0.294118  0.000000  0.272727      8.000000
  0.352941  0.000000  0.272727      8.000000
  0.411765  0.000000  0.272727      8.000000
  0.470588  0.000000  0.272727      8.000000
  0.058824  0.058824  0.272727      8.000000
  0.117647  0.058824  0.272727     16.000000
  0.176471  0.058824  0.272727     16.000000
  0.235294  0.058824  0.272727     16.000000
  0.294118  0.058824  0.272727     16.000000
  0.352941  0.058824  0.272727     16.000000
  0.411765  0.058824  0.272727     16.000000
  0.470588  0.058824  0.272727     16.000000
  0.117647  0.117647  0.272727      8.000000
  0.176471  0.117647  0.272727     16.000000
  0.235294  0.117647  0.272727     16.000000
  0.294118  0.117647  0.272727     16.000000
  0.352941  0.117647  0.272727     16.000000
  0.411765  0.117647  0.272727     16.000000
  0.470588  0.117647  0.272727     16.000000
  0.176471  0.176471  0.272727      8.000000
  0.235294  0.176471  0.272727     16.000000
  0.294118  0.176471  0.272727     16.000000
  0.352941  0.176471  0.272727     16.000000
  0.411765  0.176471  0.272727     16.000000
  0.470588  0.176471  0.272727     16.000000
  0.235294  0.235294  0.272727      8.000000
  0.294118  0.235294  0.272727     16.000000
  0.352941  0.235294  0.272727     16.000000
  0.411765  0.235294  0.272727     16.000000
  0.470588  0.235294  0.272727     16.000000
  0.294118  0.294118  0.272727      8.000000
  0.352941  0.294118  0.272727     16.000000
  0.411765  0.294118  0.272727     16.000000
  0.470588  0.294118  0.272727     16.000000
  0.352941  0.352941  0.272727      8.000000
  0.411765  0.352941  0.272727     16.000000
  0.470588  0.352941  0.272727     16.000000
  0.411765  0.411765  0.272727      8.000000
  0.470588  0.411765  0.272727     16.000000
  0.470588  0.470588  0.272727      8.000000
  0.000000  0.000000  0.363636      2.000000
  0.058824  0.000000  0.363636      8.000000
  0.117647  0.000000  0.363636      8.000000
  0.176471  0.000000  0.363636      8.000000
  0.235294  0.000000  0.363636      8.000000
  0.294118  0.000000  0.363636      8.000000
  0.352941  0.000000  0.363636      8.000000
  0.411765  0.000000  0.363636      8.000000
  0.470588  0.000000  0.363636      8.000000
  0.058824  0.058824  0.363636      8.000000
  0.117647  0.058824  0.363636     16.000000
  0.176471  0.058824  0.363636     16.000000
  0.235294  0.058824  0.363636     16.000000
  0.294118  0.058824  0.363636     16.000000
  0.352941  0.058824  0.363636     16.000000
  0.411765  0.058824  0.363636     16.000000
  0.470588  0.058824  0.363636     16.000000
  0.117647  0.117647  0.363636      8.000000
  0.176471  0.117647  0.363636     16.000000
  0.235294  0.117647  0.363636     16.000000
  0.294118  0.117647  0.363636     16.000000
  0.352941  0.117647  0.363636     16.000000
  0.411765  0.117647  0.363636     16.000000
  0.470588  0.117647  0.363636     16.000000
  0.176471  0.176471  0.363636      8.000000
  0.235294  0.176471  0.363636     16.000000
  0.294118  0.176471  0.363636     16.000000
  0.352941  0.176471  0.363636     16.000000
  0.411765  0.176471  0.363636     16.000000
  0.470588  0.176471  0.363636     16.000000
  0.235294  0.235294  0.363636      8.000000
  0.294118  0.235294  0.363636     16.000000
  0.352941  0.235294  0.363636     16.000000
  0.411765  0.235294  0.363636     16.000000
  0.470588  0.235294  0.363636     16.000000
  0.294118  0.294118  0.363636      8.000000
  0.352941  0.294118  0.363636     16.000000
  0.411765  0.294118  0.363636     16.000000
  0.470588  0.294118  0.363636     16.000000
  0.352941  0.352941  0.363636      8.000000
  0.411765  0.352941  0.363636     16.000000
  0.470588  0.352941  0.363636     16.000000
  0.411765  0.411765  0.363636      8.000000
  0.470588  0.411765  0.363636     16.000000
  0.470588  0.470588  0.363636      8.000000
  0.000000  0.000000  0.454545      2.000000
  0.058824  0.000000  0.454545      8.000000
  0.117647  0.000000  0.454545      8.000000
  0.176471  0.000000  0.454545      8.000000
  0.235294  0.000000  0.454545      8.000000
  0.294118  0.000000  0.454545      8.000000
  0.352941  0.000000  0.454545      8.000000
  0.411765  0.000000  0.454545      8.000000
  0.470588  0.000000  0.454545      8.000000
  0.058824  0.058824  0.454545      8.000000
  0.117647  0.058824  0.454545     16.000000
  0.176471  0.058824  0.454545     16.000000
  0.235294  0.058824  0.454545     16.000000
  0.294118  0.058824  0.454545     16.000000
  0.352941  0.058824  0.454545     16.000000
  0.411765  0.058824  0.454545     16.000000
  0.470588  0.058824  0.454545     16.000000
  0.117647  0.117647  0.454545      8.000000
  0.176471  0.117647  0.454545     16.000000
  0.235294  0.117647  0.454545     16.000000
  0.294118  0.117647  0.454545     16.000000
  0.352941  0.117647  0.454545     16.000000
  0.411765  0.117647  0.454545     16.000000
  0.470588  0.117647  0.454545     16.000000
  0.176471  0.176471  0.454545      8.000000
  0.235294  0.176471  0.454545     16.000000
  0.294118  0.176471  0.454545     16.000000
  0.352941  0.176471  0.454545     16.000000
  0.411765  0.176471  0.454545     16.000000
  0.470588  0.176471  0.454545     16.000000
  0.235294  0.235294  0.454545      8.000000
  0.294118  0.235294  0.454545     16.000000
  0.352941  0.235294  0.454545     16.000000
  0.411765  0.235294  0.454545     16.000000
  0.470588  0.235294  0.454545     16.000000
  0.294118  0.294118  0.454545      8.000000
  0.352941  0.294118  0.454545     16.000000
  0.411765  0.294118  0.454545     16.000000
  0.470588  0.294118  0.454545     16.000000
  0.352941  0.352941  0.454545      8.000000
  0.411765  0.352941  0.454545     16.000000
  0.470588  0.352941  0.454545     16.000000
  0.411765  0.411765  0.454545      8.000000
  0.470588  0.411765  0.454545     16.000000
  0.470588  0.470588  0.454545      8.000000
 
 Following cartesian coordinates:
            Coordinates               Weight
  0.000000  0.000000  0.000000      1.000000
  0.019847  0.000000  0.000000      4.000000
  0.039695  0.000000  0.000000      4.000000
  0.059542  0.000000  0.000000      4.000000
  0.079389  0.000000  0.000000      4.000000
  0.099237  0.000000  0.000000      4.000000
  0.119084  0.000000  0.000000      4.000000
  0.138931  0.000000  0.000000      4.000000
  0.158779  0.000000  0.000000      4.000000
  0.019847  0.019847  0.000000      4.000000
  0.039695  0.019847  0.000000      8.000000
  0.059542  0.019847  0.000000      8.000000
  0.079389  0.019847  0.000000      8.000000
  0.099237  0.019847  0.000000      8.000000
  0.119084  0.019847  0.000000      8.000000
  0.138931  0.019847  0.000000      8.000000
  0.158779  0.019847  0.000000      8.000000
  0.039695  0.039695  0.000000      4.000000
  0.059542  0.039695  0.000000      8.000000
  0.079389  0.039695  0.000000      8.000000
  0.099237  0.039695  0.000000      8.000000
  0.119084  0.039695  0.000000      8.000000
  0.138931  0.039695  0.000000      8.000000
  0.158779  0.039695  0.000000      8.000000
  0.059542  0.059542  0.000000      4.000000
  0.079389  0.059542  0.000000      8.000000
  0.099237  0.059542  0.000000      8.000000
  0.119084  0.059542  0.000000      8.000000
  0.138931  0.059542  0.000000      8.000000
  0.158779  0.059542  0.000000      8.000000
  0.079389  0.079389  0.000000      4.000000
  0.099237  0.079389  0.000000      8.000000
  0.119084  0.079389  0.000000      8.000000
  0.138931  0.079389  0.000000      8.000000
  0.158779  0.079389  0.000000      8.000000
  0.099237  0.099237  0.000000      4.000000
  0.119084  0.099237  0.000000      8.000000
  0.138931  0.099237  0.000000      8.000000
  0.158779  0.099237  0.000000      8.000000
  0.119084  0.119084  0.000000      4.000000
  0.138931  0.119084  0.000000      8.000000
  0.158779  0.119084  0.000000      8.000000
  0.138931  0.138931  0.000000      4.000000
  0.158779  0.138931  0.000000      8.000000
  0.158779  0.158779  0.000000      4.000000
  0.000000  0.000000  0.021715      2.000000
  0.019847  0.000000  0.021715      8.000000
  0.039695  0.000000  0.021715      8.000000
  0.059542  0.000000  0.021715      8.000000
  0.079389  0.000000  0.021715      8.000000
  0.099237  0.000000  0.021715      8.000000
  0.119084  0.000000  0.021715      8.000000
  0.138931  0.000000  0.021715      8.000000
  0.158779  0.000000  0.021715      8.000000
  0.019847  0.019847  0.021715      8.000000
  0.039695  0.019847  0.021715     16.000000
  0.059542  0.019847  0.021715     16.000000
  0.079389  0.019847  0.021715     16.000000
  0.099237  0.019847  0.021715     16.000000
  0.119084  0.019847  0.021715     16.000000
  0.138931  0.019847  0.021715     16.000000
  0.158779  0.019847  0.021715     16.000000
  0.039695  0.039695  0.021715      8.000000
  0.059542  0.039695  0.021715     16.000000
  0.079389  0.039695  0.021715     16.000000
  0.099237  0.039695  0.021715     16.000000
  0.119084  0.039695  0.021715     16.000000
  0.138931  0.039695  0.021715     16.000000
  0.158779  0.039695  0.021715     16.000000
  0.059542  0.059542  0.021715      8.000000
  0.079389  0.059542  0.021715     16.000000
  0.099237  0.059542  0.021715     16.000000
  0.119084  0.059542  0.021715     16.000000
  0.138931  0.059542  0.021715     16.000000
  0.158779  0.059542  0.021715     16.000000
  0.079389  0.079389  0.021715      8.000000
  0.099237  0.079389  0.021715     16.000000
  0.119084  0.079389  0.021715     16.000000
  0.138931  0.079389  0.021715     16.000000
  0.158779  0.079389  0.021715     16.000000
  0.099237  0.099237  0.021715      8.000000
  0.119084  0.099237  0.021715     16.000000
  0.138931  0.099237  0.021715     16.000000
  0.158779  0.099237  0.021715     16.000000
  0.119084  0.119084  0.021715      8.000000
  0.138931  0.119084  0.021715     16.000000
  0.158779  0.119084  0.021715     16.000000
  0.138931  0.138931  0.021715      8.000000
  0.158779  0.138931  0.021715     16.000000
  0.158779  0.158779  0.021715      8.000000
  0.000000  0.000000  0.043430      2.000000
  0.019847  0.000000  0.043430      8.000000
  0.039695  0.000000  0.043430      8.000000
  0.059542  0.000000  0.043430      8.000000
  0.079389  0.000000  0.043430      8.000000
  0.099237  0.000000  0.043430      8.000000
  0.119084  0.000000  0.043430      8.000000
  0.138931  0.000000  0.043430      8.000000
  0.158779  0.000000  0.043430      8.000000
  0.019847  0.019847  0.043430      8.000000
  0.039695  0.019847  0.043430     16.000000
  0.059542  0.019847  0.043430     16.000000
  0.079389  0.019847  0.043430     16.000000
  0.099237  0.019847  0.043430     16.000000
  0.119084  0.019847  0.043430     16.000000
  0.138931  0.019847  0.043430     16.000000
  0.158779  0.019847  0.043430     16.000000
  0.039695  0.039695  0.043430      8.000000
  0.059542  0.039695  0.043430     16.000000
  0.079389  0.039695  0.043430     16.000000
  0.099237  0.039695  0.043430     16.000000
  0.119084  0.039695  0.043430     16.000000
  0.138931  0.039695  0.043430     16.000000
  0.158779  0.039695  0.043430     16.000000
  0.059542  0.059542  0.043430      8.000000
  0.079389  0.059542  0.043430     16.000000
  0.099237  0.059542  0.043430     16.000000
  0.119084  0.059542  0.043430     16.000000
  0.138931  0.059542  0.043430     16.000000
  0.158779  0.059542  0.043430     16.000000
  0.079389  0.079389  0.043430      8.000000
  0.099237  0.079389  0.043430     16.000000
  0.119084  0.079389  0.043430     16.000000
  0.138931  0.079389  0.043430     16.000000
  0.158779  0.079389  0.043430     16.000000
  0.099237  0.099237  0.043430      8.000000
  0.119084  0.099237  0.043430     16.000000
  0.138931  0.099237  0.043430     16.000000
  0.158779  0.099237  0.043430     16.000000
  0.119084  0.119084  0.043430      8.000000
  0.138931  0.119084  0.043430     16.000000
  0.158779  0.119084  0.043430     16.000000
  0.138931  0.138931  0.043430      8.000000
  0.158779  0.138931  0.043430     16.000000
  0.158779  0.158779  0.043430      8.000000
  0.000000  0.000000  0.065144      2.000000
  0.019847  0.000000  0.065144      8.000000
  0.039695  0.000000  0.065144      8.000000
  0.059542  0.000000  0.065144      8.000000
  0.079389  0.000000  0.065144      8.000000
  0.099237  0.000000  0.065144      8.000000
  0.119084  0.000000  0.065144      8.000000
  0.138931  0.000000  0.065144      8.000000
  0.158779  0.000000  0.065144      8.000000
  0.019847  0.019847  0.065144      8.000000
  0.039695  0.019847  0.065144     16.000000
  0.059542  0.019847  0.065144     16.000000
  0.079389  0.019847  0.065144     16.000000
  0.099237  0.019847  0.065144     16.000000
  0.119084  0.019847  0.065144     16.000000
  0.138931  0.019847  0.065144     16.000000
  0.158779  0.019847  0.065144     16.000000
  0.039695  0.039695  0.065144      8.000000
  0.059542  0.039695  0.065144     16.000000
  0.079389  0.039695  0.065144     16.000000
  0.099237  0.039695  0.065144     16.000000
  0.119084  0.039695  0.065144     16.000000
  0.138931  0.039695  0.065144     16.000000
  0.158779  0.039695  0.065144     16.000000
  0.059542  0.059542  0.065144      8.000000
  0.079389  0.059542  0.065144     16.000000
  0.099237  0.059542  0.065144     16.000000
  0.119084  0.059542  0.065144     16.000000
  0.138931  0.059542  0.065144     16.000000
  0.158779  0.059542  0.065144     16.000000
  0.079389  0.079389  0.065144      8.000000
  0.099237  0.079389  0.065144     16.000000
  0.119084  0.079389  0.065144     16.000000
  0.138931  0.079389  0.065144     16.000000
  0.158779  0.079389  0.065144     16.000000
  0.099237  0.099237  0.065144      8.000000
  0.119084  0.099237  0.065144     16.000000
  0.138931  0.099237  0.065144     16.000000
  0.158779  0.099237  0.065144     16.000000
  0.119084  0.119084  0.065144      8.000000
  0.138931  0.119084  0.065144     16.000000
  0.158779  0.119084  0.065144     16.000000
  0.138931  0.138931  0.065144      8.000000
  0.158779  0.138931  0.065144     16.000000
  0.158779  0.158779  0.065144      8.000000
  0.000000  0.000000  0.086859      2.000000
  0.019847  0.000000  0.086859      8.000000
  0.039695  0.000000  0.086859      8.000000
  0.059542  0.000000  0.086859      8.000000
  0.079389  0.000000  0.086859      8.000000
  0.099237  0.000000  0.086859      8.000000
  0.119084  0.000000  0.086859      8.000000
  0.138931  0.000000  0.086859      8.000000
  0.158779  0.000000  0.086859      8.000000
  0.019847  0.019847  0.086859      8.000000
  0.039695  0.019847  0.086859     16.000000
  0.059542  0.019847  0.086859     16.000000
  0.079389  0.019847  0.086859     16.000000
  0.099237  0.019847  0.086859     16.000000
  0.119084  0.019847  0.086859     16.000000
  0.138931  0.019847  0.086859     16.000000
  0.158779  0.019847  0.086859     16.000000
  0.039695  0.039695  0.086859      8.000000
  0.059542  0.039695  0.086859     16.000000
  0.079389  0.039695  0.086859     16.000000
  0.099237  0.039695  0.086859     16.000000
  0.119084  0.039695  0.086859     16.000000
  0.138931  0.039695  0.086859     16.000000
  0.158779  0.039695  0.086859     16.000000
  0.059542  0.059542  0.086859      8.000000
  0.079389  0.059542  0.086859     16.000000
  0.099237  0.059542  0.086859     16.000000
  0.119084  0.059542  0.086859     16.000000
  0.138931  0.059542  0.086859     16.000000
  0.158779  0.059542  0.086859     16.000000
  0.079389  0.079389  0.086859      8.000000
  0.099237  0.079389  0.086859     16.000000
  0.119084  0.079389  0.086859     16.000000
  0.138931  0.079389  0.086859     16.000000
  0.158779  0.079389  0.086859     16.000000
  0.099237  0.099237  0.086859      8.000000
  0.119084  0.099237  0.086859     16.000000
  0.138931  0.099237  0.086859     16.000000
  0.158779  0.099237  0.086859     16.000000
  0.119084  0.119084  0.086859      8.000000
  0.138931  0.119084  0.086859     16.000000
  0.158779  0.119084  0.086859     16.000000
  0.138931  0.138931  0.086859      8.000000
  0.158779  0.138931  0.086859     16.000000
  0.158779  0.158779  0.086859      8.000000
  0.000000  0.000000  0.108574      2.000000
  0.019847  0.000000  0.108574      8.000000
  0.039695  0.000000  0.108574      8.000000
  0.059542  0.000000  0.108574      8.000000
  0.079389  0.000000  0.108574      8.000000
  0.099237  0.000000  0.108574      8.000000
  0.119084  0.000000  0.108574      8.000000
  0.138931  0.000000  0.108574      8.000000
  0.158779  0.000000  0.108574      8.000000
  0.019847  0.019847  0.108574      8.000000
  0.039695  0.019847  0.108574     16.000000
  0.059542  0.019847  0.108574     16.000000
  0.079389  0.019847  0.108574     16.000000
  0.099237  0.019847  0.108574     16.000000
  0.119084  0.019847  0.108574     16.000000
  0.138931  0.019847  0.108574     16.000000
  0.158779  0.019847  0.108574     16.000000
  0.039695  0.039695  0.108574      8.000000
  0.059542  0.039695  0.108574     16.000000
  0.079389  0.039695  0.108574     16.000000
  0.099237  0.039695  0.108574     16.000000
  0.119084  0.039695  0.108574     16.000000
  0.138931  0.039695  0.108574     16.000000
  0.158779  0.039695  0.108574     16.000000
  0.059542  0.059542  0.108574      8.000000
  0.079389  0.059542  0.108574     16.000000
  0.099237  0.059542  0.108574     16.000000
  0.119084  0.059542  0.108574     16.000000
  0.138931  0.059542  0.108574     16.000000
  0.158779  0.059542  0.108574     16.000000
  0.079389  0.079389  0.108574      8.000000
  0.099237  0.079389  0.108574     16.000000
  0.119084  0.079389  0.108574     16.000000
  0.138931  0.079389  0.108574     16.000000
  0.158779  0.079389  0.108574     16.000000
  0.099237  0.099237  0.108574      8.000000
  0.119084  0.099237  0.108574     16.000000
  0.138931  0.099237  0.108574     16.000000
  0.158779  0.099237  0.108574     16.000000
  0.119084  0.119084  0.108574      8.000000
  0.138931  0.119084  0.108574     16.000000
  0.158779  0.119084  0.108574     16.000000
  0.138931  0.138931  0.108574      8.000000
  0.158779  0.138931  0.108574     16.000000
  0.158779  0.158779  0.108574      8.000000
 


--------------------------------------------------------------------------------------------------------




 Dimension of arrays:
   k-points           NKPTS =    270   k-points in BZ     NKDIM =    270   number of bands    NBANDS=     32
   number of dos      NEDOS =    301   number of ions     NIONS =     22
   non local maximal  LDIM  =      7   non local SUM 2l+1 LMDIM =     25
   total plane-waves  NPLWV =  28224
   max r-space proj   IRMAX =      1   max aug-charges    IRDMAX=  55521
   dimension x,y,z NGX =    28 NGY =   28 NGZ =   36
   dimension x,y,z NGXF=    56 NGYF=   56 NGZF=   72
   support grid    NGXF=    56 NGYF=   56 NGZF=   72
   ions per type =               1   1  20
   NGX,Y,Z   is equivalent  to a cutoff of  15.71, 15.71, 14.30 a.u.
   NGXF,Y,Z  is equivalent  to a cutoff of  31.41, 31.41, 28.59 a.u.

 SYSTEM =  sys                                     
 POSCAR =  CaYH20                                  

 Startparameter for this run:
   NWRITE =      2    write-flag & timer
   PREC   = accura    normal or accurate (medium, high low for compatibility)
   ISTART =      0    job   : 0-new  1-cont  2-samecut
   ICHARG =      2    charge: 1-file 2-atom 10-const
   ISPIN  =      1    spin polarized calculation?
   LNONCOLLINEAR =      F non collinear calculations
   LSORBIT =      F    spin-orbit coupling
   INIWAV =      1    electr: 0-lowe 1-rand  2-diag
   LASPH  =      F    aspherical Exc in radial PAW
 Electronic Relaxation 1
   ENCUT  =  700.0 eV  51.45 Ry    7.17 a.u.   6.39  6.39  9.03*2*pi/ulx,y,z
   ENINI  =  700.0     initial cutoff
   ENAUG  =  470.9 eV  augmentation charge cutoff
   NELM   =    400;   NELMIN=  2; NELMDL= -5     # of ELM steps 
   EDIFF  = 0.1E-03   stopping-criterion for ELM
   LREAL  =      F    real-space projection
   NLSPLINE    = F    spline interpolate recip. space projectors
   LCOMPAT=      F    compatible to vasp.4.4
   GGA_COMPAT  = T    GGA compatible to vasp.4.4-vasp.4.6
   LMAXPAW     = -100 max onsite density
   LMAXMIX     =    2 max onsite mixed and CHGCAR
   VOSKOWN=      0    Vosko Wilk Nusair interpolation
   ROPT   =    0.00000   0.00000   0.00000
 Ionic relaxation
   EDIFFG = 0.1E-02   stopping-criterion for IOM
   NSW    =      0    number of steps for IOM
   NBLOCK =      1;   KBLOCK =      1    inner block; outer block 
   IBRION =     -1    ionic relax: 0-MD 1-quasi-New 2-CG
   NFREE  =      0    steps in history (QN), initial steepest desc. (CG)
   ISIF   =      2    stress and relaxation
   IWAVPR =     10    prediction:  0-non 1-charg 2-wave 3-comb
   ISYM   =      2    0-nonsym 1-usesym 2-fastsym
   LCORR  =      T    Harris-Foulkes like correction to forces

   POTIM  = 0.5000    time-step for ionic-motion
   TEIN   =    0.0    initial temperature
   TEBEG  =    0.0;   TEEND  =   0.0 temperature during run
   SMASS  =  -3.00    Nose mass-parameter (am)
   estimated Nose-frequenzy (Omega)   =  0.10E-29 period in steps = 0.13E+47 mass=  -0.201E-27a.u.
   SCALEE = 1.0000    scale energy and forces
   NPACO  =    256;   APACO  = 10.0  distance and # of slots for P.C.
   PSTRESS=    0.0 pullay stress

  Mass of Ions in am
   POMASS =  40.08 88.91  1.00
  Ionic Valenz
   ZVAL   =  10.00 11.00  1.00
  Atomic Wigner-Seitz radii
   RWIGS  =  -1.00 -1.00 -1.00
  virtual crystal weights 
   VCA    =   1.00  1.00  1.00
   NELECT =      41.0000    total number of electrons
   NUPDOWN=      -1.0000    fix difference up-down

 DOS related values:
   EMIN   =  10.00;   EMAX   =-10.00  energy-range for DOS
   EFERMI =   0.00;   METHOD = LEGACY      
   ISMEAR =     1;   SIGMA  =   0.10  broadening in eV -4-tet -1-fermi 0-gaus

 Electronic relaxation 2 (details)
   IALGO  =     38    algorithm
   LDIAG  =      T    sub-space diagonalisation (order eigenvalues)
   LSUBROT=      F    optimize rotation matrix (better conditioning)
   TURBO    =      0    0=normal 1=particle mesh
   IRESTART =      0    0=no restart 2=restart with 2 vectors
   NREBOOT  =      0    no. of reboots
   NMIN     =      0    reboot dimension
   EREF     =   0.00    reference energy to select bands
   IMIX   =      4    mixing-type and parameters
     AMIX     =   0.40;   BMIX     =  1.00
     AMIX_MAG =   1.60;   BMIX_MAG =  1.00
     AMIN     =   0.10
     WC   =   100.;   INIMIX=   1;  MIXPRE=   1;  MAXMIX= -45

 Intra band minimization:
   WEIMIN = 0.0000     energy-eigenvalue tresh-hold
   EBREAK =  0.78E-06  absolut break condition
   DEPER  =   0.30     relativ break condition  

   TIME   =   0.40     timestep for ELM

  volume/ion in A,a.u.               =       1.67        11.28
  Fermi-wavevector in a.u.,A,eV,Ry     =   1.697538  3.207881 39.207023  2.881635
  Thomas-Fermi vector in A             =   2.778201

 Write flags
   LWAVE        =      F    write WAVECAR
   LDOWNSAMPLE  =      F    k-point downsampling of WAVECAR
   LCHARG       =      T    write CHGCAR
   LVTOT        =      F    write LOCPOT, total local potential
   LVHAR        =      F    write LOCPOT, Hartree potential only
   WRT_POTENTIAL= false  ! write potential to hdf5 file
   LELF         =      T    write electronic localiz. function (ELF)
   LORBIT       =      0    0 simple, 1 ext, 2 COOP (PROOUT), +10 PAW based schemes


 Dipole corrections
   LMONO      =      F    monopole corrections only (constant potential shift)
   LDIPOL     =      F    correct potential (dipole corrections)
   IDIPOL     =      0    1-x, 2-y, 3-z, 4-all directions 
   EPSILON    =  1.0000000 bulk dielectric constant
   LVACPOTAV  =      F  vacuum potentials using an averaging scheme for the charge density
   VACPOTFLAT =  0.1000000 required flatness to determine vacuum potential
 Exchange correlation treatment:
   GGA     = PE    functional components
   XC_C    = 1    coefficients multiplying the functional components
   LIBXC   =     F    Libxc                    
   VOSKOWN =     0    Vosko Wilk Nusair interpolation
   LHFCALC =     F    Hartree Fock is set to
   LHFONE  =     F    Hartree Fock one center treatment
   AEXX    =    0.0000 exact exchange contribution

 Parameters of functionals:
   PE:
     No parameter

 Van der Waals corrections
   IVDW    =     0    specifies the selected vdW correction

 Linear response parameters
   LEPSILON=     F    determine dielectric tensor
   LRPA    =     F    only Hartree local field effects (RPA)
   LNABLA  =     F    use nabla operator in PAW spheres
   LVEL    =     F    velocity operator in full k-point grid
   CSHIFT  =0.1000    complex shift for real part using Kramers Kronig
   OMEGAMAX=  -1.0    maximum frequency
   DEG_THRESHOLD= 0.2000000E-02 threshold for treating states as degnerate
   RTIME   =   -0.100 relaxation time in fs
  (WPLASMAI=    0.000 imaginary part of plasma frequency in eV, 0.658/RTIME)
   DFIELD  = 0.0000000 0.0000000 0.0000000 field for delta impulse in time

  Optional k-point grid parameters
   LKPOINTS_OPT  =     F    use optional k-point grid
   KPOINTS_OPT_MODE=     1    mode for optional k-point grid

 Orbital magnetization related:
   ORBITALMAG=     F  switch on orbital magnetization
   LCHIMAG   =     F  perturbation theory with respect to B field
   DQ        =  0.001000  dq finite difference perturbation B field
   LLRAUG    =     F  two centre corrections for induced B field
   LBONE     =     F  B-component reconstruction in AE one-centre
   LVGVCALC  =     T  calculate vGv susceptibility
   LVGVAPPL  =     F  apply vGv susceptibility instead of pGv for G=0

 Random number generation:
   RANDOM_GENERATOR = DEFAULT
   PCG_SEED         = not used


--------------------------------------------------------------------------------------------------------


 Static calculation
 charge density and potential will be updated during run
 non-spin polarized calculation
 Variant of blocked Davidson
 Davidson routine will perform the subspace rotation
 perform sub-space diagonalisation
    after iterative eigenvector-optimisation
 modified Broyden-mixing scheme, WC =      100.0
 initial mixing is a Kerker type mixing with AMIX =  0.4000 and BMIX =      1.0000
 Hartree-type preconditioning will be used
 using additional bands           11
 reciprocal scheme for non local part
 use partial core corrections
 calculate Harris-corrections to forces   (improved forces if not selfconsistent)
 use gradient corrections 
 use of overlap-Matrix (Vanderbilt PP)
 Methfessel and Paxton  Order N= 1 SIGMA  =   0.10


--------------------------------------------------------------------------------------------------------


  energy-cutoff  :      700.00
  volume of cell :       36.77
      direct lattice vectors                 reciprocal lattice vectors
     2.963800000  0.000000000  0.000000000     0.337404683  0.000000000  0.000000000
     0.000000000  2.963800000  0.000000000     0.000000000  0.337404683  0.000000000
     0.000000000  0.000000000  4.186510000     0.000000000  0.000000000  0.238862442

  length of vectors
     2.963800000  2.963800000  4.186510000     0.337404683  0.337404683  0.238862442



 k-points in units of 2pi/SCALE and weight: Regular k-point mesh                    
   0.00000000  0.00000000  0.00000000       0.000
   0.01984733  0.00000000  0.00000000       0.001
   0.03969467  0.00000000  0.00000000       0.001
   0.05954200  0.00000000  0.00000000       0.001
   0.07938934  0.00000000  0.00000000       0.001
   0.09923667  0.00000000  0.00000000       0.001
   0.11908401  0.00000000  0.00000000       0.001
   0.13893134  0.00000000  0.00000000       0.001
   0.15877867  0.00000000  0.00000000       0.001
   0.01984733  0.01984733  0.00000000       0.001
   0.03969467  0.01984733  0.00000000       0.003
   0.05954200  0.01984733  0.00000000       0.003
   0.07938934  0.01984733  0.00000000       0.003
   0.09923667  0.01984733  0.00000000       0.003
   0.11908401  0.01984733  0.00000000       0.003
   0.13893134  0.01984733  0.00000000       0.003
   0.15877867  0.01984733  0.00000000       0.003
   0.03969467  0.03969467  0.00000000       0.001
   0.05954200  0.03969467  0.00000000       0.003
   0.07938934  0.03969467  0.00000000       0.003
   0.09923667  0.03969467  0.00000000       0.003
   0.11908401  0.03969467  0.00000000       0.003
   0.13893134  0.03969467  0.00000000       0.003
   0.15877867  0.03969467  0.00000000       0.003
   0.05954200  0.05954200  0.00000000       0.001
   0.07938934  0.05954200  0.00000000       0.003
   0.09923667  0.05954200  0.00000000       0.003
   0.11908401  0.05954200  0.00000000       0.003
   0.13893134  0.05954200  0.00000000       0.003
   0.15877867  0.05954200  0.00000000       0.003
   0.07938934  0.07938934  0.00000000       0.001
   0.09923667  0.07938934  0.00000000       0.003
   0.11908401  0.07938934  0.00000000       0.003
   0.13893134  0.07938934  0.00000000       0.003
   0.15877867  0.07938934  0.00000000       0.003
   0.09923667  0.09923667  0.00000000       0.001
   0.11908401  0.09923667  0.00000000       0.003
   0.13893134  0.09923667  0.00000000       0.003
   0.15877867  0.09923667  0.00000000       0.003
   0.11908401  0.11908401  0.00000000       0.001
   0.13893134  0.11908401  0.00000000       0.003
   0.15877867  0.11908401  0.00000000       0.003
   0.13893134  0.13893134  0.00000000       0.001
   0.15877867  0.13893134  0.00000000       0.003
   0.15877867  0.15877867  0.00000000       0.001
   0.00000000  0.00000000  0.02171477       0.001
   0.01984733  0.00000000  0.02171477       0.003
   0.03969467  0.00000000  0.02171477       0.003
   0.05954200  0.00000000  0.02171477       0.003
   0.07938934  0.00000000  0.02171477       0.003
   0.09923667  0.00000000  0.02171477       0.003
   0.11908401  0.00000000  0.02171477       0.003
   0.13893134  0.00000000  0.02171477       0.003
   0.15877867  0.00000000  0.02171477       0.003
   0.01984733  0.01984733  0.02171477       0.003
   0.03969467  0.01984733  0.02171477       0.005
   0.05954200  0.01984733  0.02171477       0.005
   0.07938934  0.01984733  0.02171477       0.005
   0.09923667  0.01984733  0.02171477       0.005
   0.11908401  0.01984733  0.02171477       0.005
   0.13893134  0.01984733  0.02171477       0.005
   0.15877867  0.01984733  0.02171477       0.005
   0.03969467  0.03969467  0.02171477       0.003
   0.05954200  0.03969467  0.02171477       0.005
   0.07938934  0.03969467  0.02171477       0.005
   0.09923667  0.03969467  0.02171477       0.005
   0.11908401  0.03969467  0.02171477       0.005
   0.13893134  0.03969467  0.02171477       0.005
   0.15877867  0.03969467  0.02171477       0.005
   0.05954200  0.05954200  0.02171477       0.003
   0.07938934  0.05954200  0.02171477       0.005
   0.09923667  0.05954200  0.02171477       0.005
   0.11908401  0.05954200  0.02171477       0.005
   0.13893134  0.05954200  0.02171477       0.005
   0.15877867  0.05954200  0.02171477       0.005
   0.07938934  0.07938934  0.02171477       0.003
   0.09923667  0.07938934  0.02171477       0.005
   0.11908401  0.07938934  0.02171477       0.005
   0.13893134  0.07938934  0.02171477       0.005
   0.15877867  0.07938934  0.02171477       0.005
   0.09923667  0.09923667  0.02171477       0.003
   0.11908401  0.09923667  0.02171477       0.005
   0.13893134  0.09923667  0.02171477       0.005
   0.15877867  0.09923667  0.02171477       0.005
   0.11908401  0.11908401  0.02171477       0.003
   0.13893134  0.11908401  0.02171477       0.005
   0.15877867  0.11908401  0.02171477       0.005
   0.13893134  0.13893134  0.02171477       0.003
   0.15877867  0.13893134  0.02171477       0.005
   0.15877867  0.15877867  0.02171477       0.003
   0.00000000  0.00000000  0.04342953       0.001
   0.01984733  0.00000000  0.04342953       0.003
   0.03969467  0.00000000  0.04342953       0.003
   0.05954200  0.00000000  0.04342953       0.003
   0.07938934  0.00000000  0.04342953       0.003
   0.09923667  0.00000000  0.04342953       0.003
   0.11908401  0.00000000  0.04342953       0.003
   0.13893134  0.00000000  0.04342953       0.003
   0.15877867  0.00000000  0.04342953       0.003
   0.01984733  0.01984733  0.04342953       0.003
   0.03969467  0.01984733  0.04342953       0.005
   0.05954200  0.01984733  0.04342953       0.005
   0.07938934  0.01984733  0.04342953       0.005
   0.09923667  0.01984733  0.04342953       0.005
   0.11908401  0.01984733  0.04342953       0.005
   0.13893134  0.01984733  0.04342953       0.005
   0.15877867  0.01984733  0.04342953       0.005
   0.03969467  0.03969467  0.04342953       0.003
   0.05954200  0.03969467  0.04342953       0.005
   0.07938934  0.03969467  0.04342953       0.005
   0.09923667  0.03969467  0.04342953       0.005
   0.11908401  0.03969467  0.04342953       0.005
   0.13893134  0.03969467  0.04342953       0.005
   0.15877867  0.03969467  0.04342953       0.005
   0.05954200  0.05954200  0.04342953       0.003
   0.07938934  0.05954200  0.04342953       0.005
   0.09923667  0.05954200  0.04342953       0.005
   0.11908401  0.05954200  0.04342953       0.005
   0.13893134  0.05954200  0.04342953       0.005
   0.15877867  0.05954200  0.04342953       0.005
   0.07938934  0.07938934  0.04342953       0.003
   0.09923667  0.07938934  0.04342953       0.005
   0.11908401  0.07938934  0.04342953       0.005
   0.13893134  0.07938934  0.04342953       0.005
   0.15877867  0.07938934  0.04342953       0.005
   0.09923667  0.09923667  0.04342953       0.003
   0.11908401  0.09923667  0.04342953       0.005
   0.13893134  0.09923667  0.04342953       0.005
   0.15877867  0.09923667  0.04342953       0.005
   0.11908401  0.11908401  0.04342953       0.003
   0.13893134  0.11908401  0.04342953       0.005
   0.15877867  0.11908401  0.04342953       0.005
   0.13893134  0.13893134  0.04342953       0.003
   0.15877867  0.13893134  0.04342953       0.005
   0.15877867  0.15877867  0.04342953       0.003
   0.00000000  0.00000000  0.06514430       0.001
   0.01984733  0.00000000  0.06514430       0.003
   0.03969467  0.00000000  0.06514430       0.003
   0.05954200  0.00000000  0.06514430       0.003
   0.07938934  0.00000000  0.06514430       0.003
   0.09923667  0.00000000  0.06514430       0.003
   0.11908401  0.00000000  0.06514430       0.003
   0.13893134  0.00000000  0.06514430       0.003
   0.15877867  0.00000000  0.06514430       0.003
   0.01984733  0.01984733  0.06514430       0.003
   0.03969467  0.01984733  0.06514430       0.005
   0.05954200  0.01984733  0.06514430       0.005
   0.07938934  0.01984733  0.06514430       0.005
   0.09923667  0.01984733  0.06514430       0.005
   0.11908401  0.01984733  0.06514430       0.005
   0.13893134  0.01984733  0.06514430       0.005
   0.15877867  0.01984733  0.06514430       0.005
   0.03969467  0.03969467  0.06514430       0.003
   0.05954200  0.03969467  0.06514430       0.005
   0.07938934  0.03969467  0.06514430       0.005
   0.09923667  0.03969467  0.06514430       0.005
   0.11908401  0.03969467  0.06514430       0.005
   0.13893134  0.03969467  0.06514430       0.005
   0.15877867  0.03969467  0.06514430       0.005
   0.05954200  0.05954200  0.06514430       0.003
   0.07938934  0.05954200  0.06514430       0.005
   0.09923667  0.05954200  0.06514430       0.005
   0.11908401  0.05954200  0.06514430       0.005
   0.13893134  0.05954200  0.06514430       0.005
   0.15877867  0.05954200  0.06514430       0.005
   0.07938934  0.07938934  0.06514430       0.003
   0.09923667  0.07938934  0.06514430       0.005
   0.11908401  0.07938934  0.06514430       0.005
   0.13893134  0.07938934  0.06514430       0.005
   0.15877867  0.07938934  0.06514430       0.005
   0.09923667  0.09923667  0.06514430       0.003
   0.11908401  0.09923667  0.06514430       0.005
   0.13893134  0.09923667  0.06514430       0.005
   0.15877867  0.09923667  0.06514430       0.005
   0.11908401  0.11908401  0.06514430       0.003
   0.13893134  0.11908401  0.06514430       0.005
   0.15877867  0.11908401  0.06514430       0.005
   0.13893134  0.13893134  0.06514430       0.003
   0.15877867  0.13893134  0.06514430       0.005
   0.15877867  0.15877867  0.06514430       0.003
   0.00000000  0.00000000  0.08685907       0.001
   0.01984733  0.00000000  0.08685907       0.003
   0.03969467  0.00000000  0.08685907       0.003
   0.05954200  0.00000000  0.08685907       0.003
   0.07938934  0.00000000  0.08685907       0.003
   0.09923667  0.00000000  0.08685907       0.003
   0.11908401  0.00000000  0.08685907       0.003
   0.13893134  0.00000000  0.08685907       0.003
   0.15877867  0.00000000  0.08685907       0.003
   0.01984733  0.01984733  0.08685907       0.003
   0.03969467  0.01984733  0.08685907       0.005
   0.05954200  0.01984733  0.08685907       0.005
   0.07938934  0.01984733  0.08685907       0.005
   0.09923667  0.01984733  0.08685907       0.005
   0.11908401  0.01984733  0.08685907       0.005
   0.13893134  0.01984733  0.08685907       0.005
   0.15877867  0.01984733  0.08685907       0.005
   0.03969467  0.03969467  0.08685907       0.003
   0.05954200  0.03969467  0.08685907       0.005
   0.07938934  0.03969467  0.08685907       0.005
   0.09923667  0.03969467  0.08685907       0.005
   0.11908401  0.03969467  0.08685907       0.005
   0.13893134  0.03969467  0.08685907       0.005
   0.15877867  0.03969467  0.08685907       0.005
   0.05954200  0.05954200  0.08685907       0.003
   0.07938934  0.05954200  0.08685907       0.005
   0.09923667  0.05954200  0.08685907       0.005
   0.11908401  0.05954200  0.08685907       0.005
   0.13893134  0.05954200  0.08685907       0.005
   0.15877867  0.05954200  0.08685907       0.005
   0.07938934  0.07938934  0.08685907       0.003
   0.09923667  0.07938934  0.08685907       0.005
   0.11908401  0.07938934  0.08685907       0.005
   0.13893134  0.07938934  0.08685907       0.005
   0.15877867  0.07938934  0.08685907       0.005
   0.09923667  0.09923667  0.08685907       0.003
   0.11908401  0.09923667  0.08685907       0.005
   0.13893134  0.09923667  0.08685907       0.005
   0.15877867  0.09923667  0.08685907       0.005
   0.11908401  0.11908401  0.08685907       0.003
   0.13893134  0.11908401  0.08685907       0.005
   0.15877867  0.11908401  0.08685907       0.005
   0.13893134  0.13893134  0.08685907       0.003
   0.15877867  0.13893134  0.08685907       0.005
   0.15877867  0.15877867  0.08685907       0.003
   0.00000000  0.00000000  0.10857384       0.001
   0.01984733  0.00000000  0.10857384       0.003
   0.03969467  0.00000000  0.10857384       0.003
   0.05954200  0.00000000  0.10857384       0.003
   0.07938934  0.00000000  0.10857384       0.003
   0.09923667  0.00000000  0.10857384       0.003
   0.11908401  0.00000000  0.10857384       0.003
   0.13893134  0.00000000  0.10857384       0.003
   0.15877867  0.00000000  0.10857384       0.003
   0.01984733  0.01984733  0.10857384       0.003
   0.03969467  0.01984733  0.10857384       0.005
   0.05954200  0.01984733  0.10857384       0.005
   0.07938934  0.01984733  0.10857384       0.005
   0.09923667  0.01984733  0.10857384       0.005
   0.11908401  0.01984733  0.10857384       0.005
   0.13893134  0.01984733  0.10857384       0.005
   0.15877867  0.01984733  0.10857384       0.005
   0.03969467  0.03969467  0.10857384       0.003
   0.05954200  0.03969467  0.10857384       0.005
   0.07938934  0.03969467  0.10857384       0.005
   0.09923667  0.03969467  0.10857384       0.005
   0.11908401  0.03969467  0.10857384       0.005
   0.13893134  0.03969467  0.10857384       0.005
   0.15877867  0.03969467  0.10857384       0.005
   0.05954200  0.05954200  0.10857384       0.003
   0.07938934  0.05954200  0.10857384       0.005
   0.09923667  0.05954200  0.10857384       0.005
   0.11908401  0.05954200  0.10857384       0.005
   0.13893134  0.05954200  0.10857384       0.005
   0.15877867  0.05954200  0.10857384       0.005
   0.07938934  0.07938934  0.10857384       0.003
   0.09923667  0.07938934  0.10857384       0.005
   0.11908401  0.07938934  0.10857384       0.005
   0.13893134  0.07938934  0.10857384       0.005
   0.15877867  0.07938934  0.10857384       0.005
   0.09923667  0.09923667  0.10857384       0.003
   0.11908401  0.09923667  0.10857384       0.005
   0.13893134  0.09923667  0.10857384       0.005
   0.15877867  0.09923667  0.10857384       0.005
   0.11908401  0.11908401  0.10857384       0.003
   0.13893134  0.11908401  0.10857384       0.005
   0.15877867  0.11908401  0.10857384       0.005
   0.13893134  0.13893134  0.10857384       0.003
   0.15877867  0.13893134  0.10857384       0.005
   0.15877867  0.15877867  0.10857384       0.003

 k-points in reciprocal lattice and weights: Regular k-point mesh                    
   0.00000000  0.00000000  0.00000000       0.000
   0.05882353  0.00000000  0.00000000       0.001
   0.11764706  0.00000000  0.00000000       0.001
   0.17647059  0.00000000  0.00000000       0.001
   0.23529412  0.00000000  0.00000000       0.001
   0.29411765  0.00000000  0.00000000       0.001
   0.35294118  0.00000000  0.00000000       0.001
   0.41176471  0.00000000  0.00000000       0.001
   0.47058824  0.00000000  0.00000000       0.001
   0.05882353  0.05882353  0.00000000       0.001
   0.11764706  0.05882353  0.00000000       0.003
   0.17647059  0.05882353  0.00000000       0.003
   0.23529412  0.05882353  0.00000000       0.003
   0.29411765  0.05882353  0.00000000       0.003
   0.35294118  0.05882353  0.00000000       0.003
   0.41176471  0.05882353  0.00000000       0.003
   0.47058824  0.05882353  0.00000000       0.003
   0.11764706  0.11764706  0.00000000       0.001
   0.17647059  0.11764706  0.00000000       0.003
   0.23529412  0.11764706  0.00000000       0.003
   0.29411765  0.11764706  0.00000000       0.003
   0.35294118  0.11764706  0.00000000       0.003
   0.41176471  0.11764706  0.00000000       0.003
   0.47058824  0.11764706  0.00000000       0.003
   0.17647059  0.17647059  0.00000000       0.001
   0.23529412  0.17647059  0.00000000       0.003
   0.29411765  0.17647059  0.00000000       0.003
   0.35294118  0.17647059  0.00000000       0.003
   0.41176471  0.17647059  0.00000000       0.003
   0.47058824  0.17647059  0.00000000       0.003
   0.23529412  0.23529412  0.00000000       0.001
   0.29411765  0.23529412  0.00000000       0.003
   0.35294118  0.23529412  0.00000000       0.003
   0.41176471  0.23529412  0.00000000       0.003
   0.47058824  0.23529412  0.00000000       0.003
   0.29411765  0.29411765  0.00000000       0.001
   0.35294118  0.29411765  0.00000000       0.003
   0.41176471  0.29411765  0.00000000       0.003
   0.47058824  0.29411765  0.00000000       0.003
   0.35294118  0.35294118  0.00000000       0.001
   0.41176471  0.35294118  0.00000000       0.003
   0.47058824  0.35294118  0.00000000       0.003
   0.41176471  0.41176471  0.00000000       0.001
   0.47058824  0.41176471  0.00000000       0.003
   0.47058824  0.47058824  0.00000000       0.001
   0.00000000  0.00000000  0.09090909       0.001
   0.05882353  0.00000000  0.09090909       0.003
   0.11764706  0.00000000  0.09090909       0.003
   0.17647059  0.00000000  0.09090909       0.003
   0.23529412  0.00000000  0.09090909       0.003
   0.29411765  0.00000000  0.09090909       0.003
   0.35294118  0.00000000  0.09090909       0.003
   0.41176471  0.00000000  0.09090909       0.003
   0.47058824  0.00000000  0.09090909       0.003
   0.05882353  0.05882353  0.09090909       0.003
   0.11764706  0.05882353  0.09090909       0.005
   0.17647059  0.05882353  0.09090909       0.005
   0.23529412  0.05882353  0.09090909       0.005
   0.29411765  0.05882353  0.09090909       0.005
   0.35294118  0.05882353  0.09090909       0.005
   0.41176471  0.05882353  0.09090909       0.005
   0.47058824  0.05882353  0.09090909       0.005
   0.11764706  0.11764706  0.09090909       0.003
   0.17647059  0.11764706  0.09090909       0.005
   0.23529412  0.11764706  0.09090909       0.005
   0.29411765  0.11764706  0.09090909       0.005
   0.35294118  0.11764706  0.09090909       0.005
   0.41176471  0.11764706  0.09090909       0.005
   0.47058824  0.11764706  0.09090909       0.005
   0.17647059  0.17647059  0.09090909       0.003
   0.23529412  0.17647059  0.09090909       0.005
   0.29411765  0.17647059  0.09090909       0.005
   0.35294118  0.17647059  0.09090909       0.005
   0.41176471  0.17647059  0.09090909       0.005
   0.47058824  0.17647059  0.09090909       0.005
   0.23529412  0.23529412  0.09090909       0.003
   0.29411765  0.23529412  0.09090909       0.005
   0.35294118  0.23529412  0.09090909       0.005
   0.41176471  0.23529412  0.09090909       0.005
   0.47058824  0.23529412  0.09090909       0.005
   0.29411765  0.29411765  0.09090909       0.003
   0.35294118  0.29411765  0.09090909       0.005
   0.41176471  0.29411765  0.09090909       0.005
   0.47058824  0.29411765  0.09090909       0.005
   0.35294118  0.35294118  0.09090909       0.003
   0.41176471  0.35294118  0.09090909       0.005
   0.47058824  0.35294118  0.09090909       0.005
   0.41176471  0.41176471  0.09090909       0.003
   0.47058824  0.41176471  0.09090909       0.005
   0.47058824  0.47058824  0.09090909       0.003
   0.00000000  0.00000000  0.18181818       0.001
   0.05882353  0.00000000  0.18181818       0.003
   0.11764706  0.00000000  0.18181818       0.003
   0.17647059  0.00000000  0.18181818       0.003
   0.23529412  0.00000000  0.18181818       0.003
   0.29411765  0.00000000  0.18181818       0.003
   0.35294118  0.00000000  0.18181818       0.003
   0.41176471  0.00000000  0.18181818       0.003
   0.47058824  0.00000000  0.18181818       0.003
   0.05882353  0.05882353  0.18181818       0.003
   0.11764706  0.05882353  0.18181818       0.005
   0.17647059  0.05882353  0.18181818       0.005
   0.23529412  0.05882353  0.18181818       0.005
   0.29411765  0.05882353  0.18181818       0.005
   0.35294118  0.05882353  0.18181818       0.005
   0.41176471  0.05882353  0.18181818       0.005
   0.47058824  0.05882353  0.18181818       0.005
   0.11764706  0.11764706  0.18181818       0.003
   0.17647059  0.11764706  0.18181818       0.005
   0.23529412  0.11764706  0.18181818       0.005
   0.29411765  0.11764706  0.18181818       0.005
   0.35294118  0.11764706  0.18181818       0.005
   0.41176471  0.11764706  0.18181818       0.005
   0.47058824  0.11764706  0.18181818       0.005
   0.17647059  0.17647059  0.18181818       0.003
   0.23529412  0.17647059  0.18181818       0.005
   0.29411765  0.17647059  0.18181818       0.005
   0.35294118  0.17647059  0.18181818       0.005
   0.41176471  0.17647059  0.18181818       0.005
   0.47058824  0.17647059  0.18181818       0.005
   0.23529412  0.23529412  0.18181818       0.003
   0.29411765  0.23529412  0.18181818       0.005
   0.35294118  0.23529412  0.18181818       0.005
   0.41176471  0.23529412  0.18181818       0.005
   0.47058824  0.23529412  0.18181818       0.005
   0.29411765  0.29411765  0.18181818       0.003
   0.35294118  0.29411765  0.18181818       0.005
   0.41176471  0.29411765  0.18181818       0.005
   0.47058824  0.29411765  0.18181818       0.005
   0.35294118  0.35294118  0.18181818       0.003
   0.41176471  0.35294118  0.18181818       0.005
   0.47058824  0.35294118  0.18181818       0.005
   0.41176471  0.41176471  0.18181818       0.003
   0.47058824  0.41176471  0.18181818       0.005
   0.47058824  0.47058824  0.18181818       0.003
   0.00000000  0.00000000  0.27272727       0.001
   0.05882353  0.00000000  0.27272727       0.003
   0.11764706  0.00000000  0.27272727       0.003
   0.17647059  0.00000000  0.27272727       0.003
   0.23529412  0.00000000  0.27272727       0.003
   0.29411765  0.00000000  0.27272727       0.003
   0.35294118  0.00000000  0.27272727       0.003
   0.41176471  0.00000000  0.27272727       0.003
   0.47058824  0.00000000  0.27272727       0.003
   0.05882353  0.05882353  0.27272727       0.003
   0.11764706  0.05882353  0.27272727       0.005
   0.17647059  0.05882353  0.27272727       0.005
   0.23529412  0.05882353  0.27272727       0.005
   0.29411765  0.05882353  0.27272727       0.005
   0.35294118  0.05882353  0.27272727       0.005
   0.41176471  0.05882353  0.27272727       0.005
   0.47058824  0.05882353  0.27272727       0.005
   0.11764706  0.11764706  0.27272727       0.003
   0.17647059  0.11764706  0.27272727       0.005
   0.23529412  0.11764706  0.27272727       0.005
   0.29411765  0.11764706  0.27272727       0.005
   0.35294118  0.11764706  0.27272727       0.005
   0.41176471  0.11764706  0.27272727       0.005
   0.47058824  0.11764706  0.27272727       0.005
   0.17647059  0.17647059  0.27272727       0.003
   0.23529412  0.17647059  0.27272727       0.005
   0.29411765  0.17647059  0.27272727       0.005
   0.35294118  0.17647059  0.27272727       0.005
   0.41176471  0.17647059  0.27272727       0.005
   0.47058824  0.17647059  0.27272727       0.005
   0.23529412  0.23529412  0.27272727       0.003
   0.29411765  0.23529412  0.27272727       0.005
   0.35294118  0.23529412  0.27272727       0.005
   0.41176471  0.23529412  0.27272727       0.005
   0.47058824  0.23529412  0.27272727       0.005
[...]
     18      10.7324      2.00000
     19      11.6003      2.00000
     20      12.2574      2.00000
     21      15.3950     -0.00000
     22      15.8456     -0.00000
     23      19.9880      0.00000
     24      20.5295      0.00000
     25      21.3843      0.00000
     26      21.8045      0.00000
     27      22.4052      0.00000
     28      23.0984      0.00000
     29      24.7093      0.00000
     30      25.5489      0.00000
     31      26.3297      0.00000
     32      27.0461      0.00000

 k-point   266 :       0.4118    0.3529    0.4545
  band No.  band energies     occupation 
      1     -28.2720      2.00000
      2     -26.4486      2.00000
      3     -14.2114      2.00000
      4     -13.8794      2.00000
      5     -12.8012      2.00000
      6     -11.6747      2.00000
      7      -9.9823      2.00000
      8      -9.7304      2.00000
      9      -3.2984      2.00000
     10      -2.8740      2.00000
     11      -0.3552      2.00000
     12       0.6213      2.00000
     13       0.9721      2.00000
     14       2.2787      2.00000
     15       4.4177      2.00000
     16       5.4113      2.00000
     17      10.1238      2.00000
     18      10.7594      2.00000
     19      11.6858      2.00000
     20      12.3150      2.00000
     21      16.5936     -0.00000
     22      17.0780      0.00000
     23      20.3684      0.00000
     24      20.9084      0.00000
     25      21.1196      0.00000
     26      22.1440      0.00000
     27      22.2865      0.00000
     28      23.0446      0.00000
     29      24.4873      0.00000
     30      25.0622      0.00000
     31      25.8094      0.00000
     32      26.7018      0.00000

 k-point   267 :       0.4706    0.3529    0.4545
  band No.  band energies     occupation 
      1     -28.2336      2.00000
      2     -26.4147      2.00000
      3     -14.2498      2.00000
      4     -13.8415      2.00000
      5     -12.6524      2.00000
      6     -11.6330      2.00000
      7     -10.2823      2.00000
      8     -10.0894      2.00000
      9      -3.2739      2.00000
     10      -2.9656      2.00000
     11      -0.4526      2.00000
     12       0.5968      2.00000
     13       1.2992      2.00000
     14       2.4904      2.00000
     15       4.2480      2.00000
     16       5.2385      2.00000
     17      10.3708      2.00000
     18      10.6250      2.00000
     19      11.9227      2.00000
     20      12.2123      2.00000
     21      17.6516      0.00000
     22      18.1499      0.00000
     23      19.5583      0.00000
     24      20.0253      0.00000
     25      21.7035      0.00000
     26      22.7050      0.00000
     27      23.2578      0.00000
     28      23.4616      0.00000
     29      24.2603      0.00000
     30      24.7355      0.00000
     31      24.8939      0.00000
     32      25.6622      0.00000

 k-point   268 :       0.4118    0.4118    0.4545
  band No.  band energies     occupation 
      1     -28.2045      2.00000
      2     -26.3894      2.00000
      3     -13.8870      2.00000
      4     -13.4492      2.00000
      5     -13.1182      2.00000
      6     -11.9145      2.00000
      7     -10.5734      2.00000
      8     -10.2967      2.00000
      9      -3.3779      2.00000
     10      -3.0092      2.00000
     11       0.1250      2.00000
     12       0.6611      2.00000
     13       1.3023      2.00000
     14       2.2092      2.00000
     15       4.1139      2.00000
     16       5.1361      2.00000
     17      10.4208      2.00000
     18      10.9388      2.00000
     19      11.9952      2.00000
     20      12.5499      2.00000
     21      17.9440      0.00000
     22      18.4882      0.00000
     23      20.8261      0.00000
     24      20.9310      0.00000
     25      21.5199      0.00000
     26      21.7940      0.00000
     27      21.8344      0.00000
     28      22.6520      0.00000
     29      24.6052      0.00000
     30      24.9728      0.00000
     31      25.1619      0.00000
     32      26.4705      0.00000

 k-point   269 :       0.4706    0.4118    0.4545
  band No.  band energies     occupation 
      1     -28.1677      2.00000
      2     -26.3571      2.00000
      3     -13.7662      2.00000
      4     -13.3248      2.00000
      5     -12.9840      2.00000
      6     -11.9580      2.00000
      7     -10.9838      2.00000
      8     -10.7344      2.00000
      9      -3.3924      2.00000
     10      -3.0599      2.00000
     11       0.1905      2.00000
     12       0.7527      2.00000
     13       1.6120      2.00000
     14       2.2981      2.00000
     15       3.8379      2.00000
     16       4.8231      2.00000
     17      10.7321      2.00000
     18      10.9444      2.00000
     19      12.3376      2.00000
     20      12.6187      2.00000
     21      19.0648      0.00000
     22      19.6410      0.00000
     23      20.0481      0.00000
     24      20.7333      0.00000
     25      21.1609      0.00000
     26      22.2040      0.00000
     27      22.6625      0.00000
     28      22.9683      0.00000
     29      24.2993      0.00000
     30      24.5451      0.00000
     31      24.7389      0.00000
     32      25.5922      0.00000

 k-point   270 :       0.4706    0.4706    0.4545
  band No.  band energies     occupation 
      1     -28.1318      2.00000
      2     -26.3258      2.00000
      3     -13.4191      2.00000
      4     -13.2975      2.00000
      5     -12.6248      2.00000
      6     -12.0843      2.00000
      7     -11.6293      2.00000
      8     -11.2287      2.00000
      9      -3.4350      2.00000
     10      -3.0851      2.00000
     11       0.5766      2.00000
     12       0.6584      2.00000
     13       2.0939      2.00000
     14       2.2587      2.00000
     15       3.4587      2.00000
     16       4.3850      2.00000
     17      11.0203      2.00000
     18      11.0945      2.00000
     19      12.7197      2.00000
     20      12.8112      2.00000
     21      19.7141      0.00000
     22      20.1184      0.00000
     23      20.8301      0.00000
     24      21.1404      0.00000
     25      21.7986      0.00000
     26      21.9203      0.00000
     27      22.4776      0.00000
     28      22.8005      0.00000
     29      23.8663      0.00000
     30      24.1141      0.00000
     31      24.5332      0.00000
     32      24.9098      0.00000


--------------------------------------------------------------------------------------------------------


 soft charge-density along one line, spin component           1
         0         1         2         3         4         5         6         7         8         9
 total charge-density along one line

 pseudopotential strength for first ion, spin component:           1
-17.086  -0.688   0.000   0.000   0.000  -0.000  -0.000  -0.000
 -0.688  -6.177   0.000   0.000   0.000   0.000   0.000   0.000
  0.000   0.000 -15.062   0.000   0.000   1.904  -0.000  -0.000
  0.000   0.000   0.000 -15.065   0.000  -0.000   1.908  -0.000
  0.000   0.000   0.000   0.000 -15.062  -0.000  -0.000   1.904
 -0.000   0.000   1.904  -0.000  -0.000  11.285   0.000   0.000
 -0.000   0.000  -0.000   1.908  -0.000   0.000  11.285   0.000
 -0.000   0.000  -0.000  -0.000   1.904   0.000   0.000  11.285
  0.000   0.000   0.000   0.000   0.000  -0.000  -0.000  -0.000
  0.000   0.000   0.000   0.000   0.000  -0.000  -0.000  -0.000
 -0.002  -0.001  -0.000   0.000  -0.000   0.000  -0.000   0.000
  0.000   0.000   0.000   0.000   0.000  -0.000  -0.000  -0.000
 -0.000  -0.000  -0.000  -0.000   0.000   0.000   0.000  -0.000
  0.000   0.000   0.000   0.000   0.000  -0.000  -0.000  -0.000
  0.000   0.000   0.000   0.000   0.000  -0.000  -0.000  -0.000
 -0.002  -0.001  -0.000   0.000  -0.000   0.000  -0.000   0.000
  0.000   0.000   0.000   0.000   0.000  -0.000  -0.000  -0.000
 -0.000  -0.000  -0.000  -0.000   0.000   0.000   0.000  -0.000
 total augmentation occupancy for first ion, spin component:           1
  2.026   0.150   0.000   0.000   0.000   0.000   0.000   0.000   0.000  -0.000   0.001   0.000   0.000   0.000   0.000  -0.001
  0.150   1.655   0.000   0.000   0.000   0.000   0.000   0.000   0.000   0.000   0.039   0.000   0.000   0.000  -0.000  -0.029
  0.000   0.000   2.046   0.000   0.000   0.084   0.000   0.000   0.000   0.000   0.000   0.000   0.000   0.000   0.000   0.000
  0.000   0.000   0.000   2.046  -0.000   0.000   0.084   0.000   0.000   0.000   0.000   0.000   0.000   0.000   0.000   0.000
  0.000   0.000   0.000  -0.000   2.046   0.000   0.000   0.084   0.000   0.000   0.000   0.000   0.000   0.000   0.000   0.000
  0.000   0.000   0.084   0.000   0.000   0.175   0.000   0.000   0.000   0.000   0.000   0.000   0.000   0.000   0.000   0.000
  0.000   0.000   0.000   0.084   0.000   0.000   0.180   0.000   0.000   0.000   0.000   0.000   0.000   0.000   0.000   0.000
  0.000   0.000   0.000   0.000   0.084   0.000   0.000   0.175   0.000   0.000   0.000   0.000   0.000   0.000   0.000   0.000
  0.000   0.000   0.000   0.000   0.000   0.000   0.000   0.000   3.178  -0.000   0.000   0.000   0.000  -2.084   0.000   0.000
 -0.000   0.000   0.000   0.000   0.000   0.000   0.000   0.000   0.000   3.057   0.000   0.000   0.000   0.000  -1.937   0.000
  0.001   0.039   0.000   0.000   0.000   0.000   0.000   0.000   0.000   0.000   3.273   0.000   0.000   0.000   0.000  -2.157
  0.000   0.000   0.000   0.000   0.000   0.000   0.000   0.000   0.000   0.000   0.000   3.057   0.000   0.000   0.000   0.000
  0.000   0.000   0.000   0.000   0.000   0.000   0.000   0.000   0.000   0.000   0.000   0.000   3.030  -0.000   0.000  -0.000
  0.000   0.000   0.000   0.000   0.000   0.000   0.000   0.000  -2.084   0.000   0.000   0.000  -0.000   1.383  -0.000   0.000
  0.000   0.000   0.000   0.000   0.000   0.000   0.000   0.000   0.000  -1.937   0.000   0.000   0.000  -0.000   1.258  -0.000
 -0.001  -0.029   0.000   0.000   0.000   0.000   0.000   0.000   0.000   0.000  -2.157   0.000  -0.000   0.000   0.000   1.438
  0.000  -0.000   0.000   0.000   0.000   0.000   0.000   0.000   0.000   0.000   0.000  -1.937   0.000   0.000   0.000  -0.000
  0.000   0.000   0.000   0.000   0.000   0.000   0.000   0.000  -0.000   0.000  -0.000   0.000  -1.928  -0.000  -0.000   0.000


------------------------ aborting loop because EDIFF is reached ----------------------------------------


    CHARGE:  cpu time      0.1305: real time      0.1314
    FORLOC:  cpu time      0.0002: real time      0.0002
    FORNL :  cpu time      0.2106: real time      0.2116
    STRESS:  cpu time      0.5450: real time      0.5481
    FORCOR:  cpu time      0.0044: real time      0.0044
    FORHAR:  cpu time      0.0012: real time      0.0012
    MIXING:  cpu time      0.0004: real time      0.0005
    OFIELD:  cpu time      0.0000: real time      0.0000

  FORCE on cell =-STRESS in cart. coord.  units (eV):
  Direction    XX          YY          ZZ          XY          YZ          ZX
  --------------------------------------------------------------------------------------
  Alpha Z   424.99805   424.99805   424.99805
  Ewald    -869.52126  -869.52126  -865.38587    -0.00000     0.00000     0.00000
  Hartree    64.47921    64.47921    65.64490     0.00000     0.00000     0.00000
  E(xc)    -174.56957  -174.56957  -174.56400     0.00000     0.00000     0.00000
  Local     227.89552   227.89552   223.06015    -0.00000    -0.00000    -0.00000
  n-local  -212.32033  -223.06224  -217.70282    -5.08552     4.18220     0.13269
  augment    31.63785    31.63785    31.58615     0.00000    -0.00000     0.00000
  Kinetic   607.66897   693.38036   650.66394    12.91520   -19.85850    -4.24526
  Fock        0.00000     0.00000     0.00000     0.00000     0.00000     0.00000
  -------------------------------------------------------------------------------------
  Total     137.75318   137.75318   138.30052     0.00000     0.00000     0.00000
  in kB    6001.53423  6001.53423  6025.38043     0.00000     0.00000     0.00000
  external pressure =     6009.48 kB  Pullay stress =        0.00 kB


 VOLUME and BASIS-vectors are now :
 -----------------------------------------------------------------------------
  energy-cutoff  :      700.00
  volume of cell :       36.77
      direct lattice vectors                 reciprocal lattice vectors
     2.963800000  0.000000000  0.000000000     0.337404683  0.000000000  0.000000000
     0.000000000  2.963800000  0.000000000     0.000000000  0.337404683  0.000000000
     0.000000000  0.000000000  4.186510000     0.000000000  0.000000000  0.238862442

  length of vectors
     2.963800000  2.963800000  4.186510000     0.337404683  0.337404683  0.238862442


 FORCES acting on ions
    electron-ion (+dipol)            ewald-force                    non-local-force                 convergence-correction
 -----------------------------------------------------------------------------------------------
   0.562E-03 0.562E-03 0.606E-02   0.137E-04 0.137E-04 0.398E-02   0.249E-21 0.297E-22 0.119E-20   -.115E-05 -.115E-05 -.350E-04
   0.432E-03 0.432E-03 0.326E-02   0.346E-04 0.346E-04 -.187E-02   -.289E-22 0.670E-21 -.461E-20   -.160E-05 -.160E-05 0.969E-05
   -.183E+01 0.318E-04 0.174E+00   0.197E+01 0.127E-04 -.340E+00   -.180E+00 0.161E-17 0.137E+00   0.103E-03 0.181E-07 -.377E-02
   0.183E+01 0.318E-04 0.174E+00   -.197E+01 0.127E-04 -.340E+00   0.180E+00 0.697E-18 0.137E+00   -.103E-03 0.181E-07 -.377E-02
   0.318E-04 -.183E+01 0.174E+00   0.127E-04 0.197E+01 -.340E+00   -.135E-18 -.180E+00 0.137E+00   0.181E-07 0.103E-03 -.377E-02
   0.318E-04 0.183E+01 0.174E+00   0.127E-04 -.197E+01 -.340E+00   -.254E-17 0.180E+00 0.137E+00   0.181E-07 -.103E-03 -.377E-02
   0.183E+01 0.318E-04 -.174E+00   -.197E+01 0.127E-04 0.340E+00   0.180E+00 -.165E-17 -.137E+00   -.103E-03 0.181E-07 0.377E-02
   -.183E+01 0.318E-04 -.174E+00   0.197E+01 0.127E-04 0.340E+00   -.180E+00 0.357E-18 -.137E+00   0.103E-03 0.181E-07 0.377E-02
   0.318E-04 -.183E+01 -.174E+00   0.127E-04 0.197E+01 0.340E+00   0.182E-17 -.180E+00 -.137E+00   0.181E-07 0.103E-03 0.377E-02
   0.318E-04 0.183E+01 -.174E+00   0.127E-04 -.197E+01 0.340E+00   0.329E-18 0.180E+00 -.137E+00   0.181E-07 -.103E-03 0.377E-02
   0.195E-04 0.271E-04 0.998E+00   0.224E-04 0.407E-04 -.105E+01   -.648E-18 -.182E-17 0.570E-01   0.483E-07 -.498E-08 0.407E-02
   0.271E-04 0.195E-04 0.998E+00   0.407E-04 0.224E-04 -.105E+01   -.487E-17 0.580E-18 0.570E-01   -.498E-08 0.483E-07 0.407E-02
   0.195E-04 0.271E-04 -.997E+00   0.224E-04 0.407E-04 0.105E+01   0.157E-18 -.184E-17 -.570E-01   0.483E-07 -.498E-08 -.407E-02
   0.271E-04 0.195E-04 -.997E+00   0.407E-04 0.224E-04 0.105E+01   0.934E-17 -.224E-17 -.570E-01   -.498E-08 0.483E-07 -.407E-02
   0.549E+00 0.221E-04 -.233E+01   -.678E+00 0.221E-04 0.249E+01   0.168E+00 0.678E-18 -.114E+00   -.255E-02 0.746E-07 -.208E-02
   -.549E+00 0.221E-04 -.233E+01   0.678E+00 0.221E-04 0.249E+01   -.168E+00 0.236E-18 -.114E+00   0.255E-02 0.746E-07 -.208E-02
   0.221E-04 0.549E+00 -.233E+01   0.221E-04 -.678E+00 0.249E+01   -.948E-19 0.168E+00 -.114E+00   0.746E-07 -.255E-02 -.208E-02
   0.221E-04 -.549E+00 -.233E+01   0.221E-04 0.678E+00 0.249E+01   0.233E-17 -.168E+00 -.114E+00   0.746E-07 0.255E-02 -.208E-02
   -.548E+00 0.221E-04 0.233E+01   0.677E+00 0.221E-04 -.249E+01   -.168E+00 0.204E-18 0.114E+00   0.256E-02 0.746E-07 0.209E-02
   0.548E+00 0.221E-04 0.233E+01   -.677E+00 0.221E-04 -.249E+01   0.168E+00 -.389E-18 0.114E+00   -.256E-02 0.746E-07 0.209E-02
   0.221E-04 0.548E+00 0.233E+01   0.221E-04 -.677E+00 -.249E+01   0.119E-17 0.168E+00 0.114E+00   0.746E-07 -.256E-02 0.209E-02
   0.221E-04 -.548E+00 0.233E+01   0.221E-04 0.677E+00 -.249E+01   -.377E-17 -.168E+00 0.114E+00   0.746E-07 0.256E-02 0.209E-02
 -----------------------------------------------------------------------------------------------
   0.137E-02 0.137E-02 0.128E-01   0.859E-14 0.822E-14 -.213E-13   -.581E-16 0.833E-16 0.000E+00   -.226E-05 -.226E-05 -.218E-04


 POSITION                                       TOTAL-FORCE (eV/Angst)
 -----------------------------------------------------------------------------------
      2.96380      2.96380      4.18650         0.000000      0.000000      0.000000
      1.48190      1.48190      2.09325         0.000000     -0.000000      0.000000
      0.75992      1.48190      0.48480        -0.042396     -0.000000     -0.032253
      2.20388      1.48190      0.48480         0.042396     -0.000000     -0.032253
      1.48190      0.75992      0.48480         0.000000     -0.042396     -0.032253
      1.48190      2.20388      0.48480         0.000000      0.042396     -0.032253
      2.20388      1.48190      3.70170         0.042396      0.000000      0.032253
      0.75992      1.48190      3.70170        -0.042396     -0.000000      0.032253
      1.48190      0.75992      3.70170         0.000000     -0.042396      0.032253
      1.48190      2.20388      3.70170         0.000000      0.042396      0.032253
      2.96380      1.48190      3.17462         0.000000     -0.000000      0.010171
      1.48190      2.96380      3.17462         0.000000      0.000000      0.010171
      2.96380      1.48190      1.01188         0.000000      0.000000     -0.010171
      1.48190      2.96380      1.01188         0.000000     -0.000000     -0.010171
      0.70331      2.96380      1.56240         0.036844      0.000000      0.043703
      2.26049      2.96380      1.56240        -0.036844     -0.000000      0.043703
      2.96380      0.70331      1.56240         0.000000      0.036844      0.043703
      2.96380      2.26049      1.56240         0.000000     -0.036844      0.043703
      2.26049      2.96380      2.62410        -0.036844      0.000000     -0.043703
      0.70331      2.96380      2.62410         0.036844      0.000000     -0.043703
      2.96380      0.70331      2.62410         0.000000      0.036844     -0.043703
      2.96380      2.26049      2.62410         0.000000     -0.036844     -0.043703
 -----------------------------------------------------------------------------------
    total drift:                                0.001367      0.001367      0.012772


--------------------------------------------------------------------------------------------------------



  FREE ENERGIE OF THE ION-ELECTRON SYSTEM (eV)
  ---------------------------------------------------
  free  energy   TOTEN  =        -7.33808230 eV

  energy  without entropy=       -7.33821892  energy(sigma->0) =       -7.33812784



--------------------------------------------------------------------------------------------------------


    POTLOK:  cpu time      0.0080: real time      0.0091


--------------------------------------------------------------------------------------------------------


     LOOP+:  cpu time     40.3492: real time     40.5848
    4ORBIT:  cpu time      0.0000: real time      0.0000

 total amount of memory used by VASP MPI-rank0    52202. kBytes
=======================================================================

   base      :      30000. kBytes
   nonl-proj :      16884. kBytes
   fftplans  :        214. kBytes
   grid      :        344. kBytes
   one-center:         60. kBytes
   wavefun   :       4700. kBytes

  
  
 General timing and accounting informations for this job:
 ========================================================
  
                  Total CPU time used (sec):       43.415
                            User time (sec):       42.691
                          System time (sec):        0.725
                         Elapsed time (sec):       44.725
  
                   Maximum memory used (kb):      264968.
                   Average memory used (kb):          N/A
  
                          Minor page faults:        51141
                          Major page faults:          322
                 Voluntary context switches:         3162
