/var/spool/slurm/job948952/slurm_script: line 9: /scratch/barreran: Is a directory
***************************************************************************
WARNING: VASP software is subject to licensing.
WARNING: You may use it only if you or your research group owns a license.
***************************************************************************
 running   64 mpi-ranks, on    1 nodes
 distrk:  each k-point on   64 cores,    1 groups
 distr:  one band on   16 cores,    4 groups
 vasp.6.4.3 19Mar24 (build Jul 15 2024 11:39:06) complex                         
 POSCAR found type information on POSCAR CaY H 
 POSCAR found :  3 types and      22 ions
 Reading from existing POTCAR
 scaLAPACK will be used
 Reading from existing POTCAR
 -----------------------------------------------------------------------------
|                                                                             |
|               ----> ADVICE to this user running VASP <----                  |
|                                                                             |
|     You have a (more or less) 'large supercell' and for larger cells it     |
|     might be more efficient to use real-space projection operators.         |
|     Therefore, try LREAL= Auto in the INCAR file.                           |
|     Mind: For very accurate calculation, you might also keep the            |
|     reciprocal projection scheme (i.e. LREAL=.FALSE.).                      |
|                                                                             |
 -----------------------------------------------------------------------------

 WARNING: PSMAXN for non-local potential too small
 LDA part: xc-table for (Slater+PW92), standard interpolation
 POSCAR, INCAR and KPOINTS ok, starting setup
 FFT: planning ... GRIDC
 FFT: planning ... GRID_SOFT
 FFT: planning ... GRID
 WAVECAR not read
 entering main loop
       N       E                     dE             d eps       ncg     rms          rms(c)
DAV:   1     0.371219164957E+03    0.37122E+03   -0.25972E+04 17280   0.175E+03
DAV:   2     0.962685310017E+01   -0.36159E+03   -0.34409E+03 19512   0.430E+02
DAV:   3    -0.114454846370E+02   -0.21072E+02   -0.20745E+02 21856   0.943E+01
DAV:   4    -0.122031781923E+02   -0.75769E+00   -0.75683E+00 23208   0.152E+01
DAV:   5    -0.122233103583E+02   -0.20132E-01   -0.20131E-01 22256   0.212E+00    0.164E+02
DAV:   6    -0.778752909121E+01    0.44358E+01   -0.57501E+00 22328   0.207E+01    0.101E+02
DAV:   7    -0.743404050641E+01    0.35349E+00   -0.76700E+00 28568   0.172E+01    0.180E+01
DAV:   8    -0.732910510806E+01    0.10494E+00   -0.10948E+00 20648   0.861E+00    0.379E+00
DAV:   9    -0.733948865338E+01   -0.10384E-01   -0.70261E-02 20248   0.199E+00    0.797E-01
DAV:  10    -0.733805608602E+01    0.14326E-02   -0.10112E-02 20024   0.862E-01    0.102E-01
DAV:  11    -0.733807818434E+01   -0.22098E-04   -0.11261E-03 23016   0.231E-01    0.732E-02
DAV:  12    -0.733808230446E+01   -0.41201E-05   -0.16179E-04 16304   0.102E-01
   1 F= -.73380823E+01 E0= -.73381278E+01  d E =0.136618E-03
 running   64 mpi-ranks, on    1 nodes
 distrk:  each k-point on   64 cores,    1 groups
 distr:  one band on   16 cores,    4 groups
 vasp.6.4.3 19Mar24 (build Jul 15 2024 11:39:06) complex                         
 POSCAR found type information on POSCAR CaY H 
 POSCAR found :  3 types and      22 ions
 Reading from existing POTCAR
 scaLAPACK will be used
 Reading from existing POTCAR
 -----------------------------------------------------------------------------
|                                                                             |
|               ----> ADVICE to this user running VASP <----                  |
|                                                                             |
|     You have a (more or less) 'large supercell' and for larger cells it     |
|     might be more efficient to use real-space projection operators.         |
|     Therefore, try LREAL= Auto in the INCAR file.                           |
|     Mind: For very accurate calculation, you might also keep the            |
|     reciprocal projection scheme (i.e. LREAL=.FALSE.).                      |
|                                                                             |
 -----------------------------------------------------------------------------

 WARNING: PSMAXN for non-local potential too small
 LDA part: xc-table for (Slater+PW92), standard interpolation
 WARNING: stress and forces are not correct
 POSCAR, INCAR and KPOINTS ok, starting setup
 FFT: planning ... GRIDC
 FFT: planning ... GRID_SOFT
 FFT: planning ... GRID
 WAVECAR not read
 charge-density read from file: sys                                     
 entering main loop
       N       E                     dE             d eps       ncg     rms          rms(c)
DAV:   1     0.377937710995E+03    0.37794E+03   -0.26083E+04 17280   0.175E+03
DAV:   2     0.164326261682E+02   -0.36151E+03   -0.34309E+03 19600   0.435E+02
DAV:   3    -0.643911761105E+01   -0.22872E+02   -0.22432E+02 22912   0.958E+01
DAV:   4    -0.731655928262E+01   -0.87744E+00   -0.87489E+00 22544   0.157E+01
DAV:   5    -0.733770176774E+01   -0.21142E-01   -0.21137E-01 22616   0.208E+00
DAV:   6    -0.733828315288E+01   -0.58139E-03   -0.58138E-03 20288   0.249E-01
DAV:   7    -0.733829756672E+01   -0.14414E-04   -0.14412E-04 15080   0.317E-02
   1 F= -.73382976E+01 E0= -.73383437E+01  d E =0.138395E-03
************************************************************************************************* 
WARNING: Intel compilation suite is provided for testing purpose only.
WARNING: It does not provide the best performance on AMD based systems
WARNING: And it may even produce invalid code that crashes compute nodes.
WARNING:
https://sacado.sorbonne-universite.fr/documentation-mcmesu/guide/advanced/compilation 
************************************************************************************************* 
no change     /softs/tools/conda/2024.10/condabin/conda
no change     /softs/tools/conda/2024.10/bin/conda
no change     /softs/tools/conda/2024.10/bin/conda-env
no change     /softs/tools/conda/2024.10/bin/activate
no change     /softs/tools/conda/2024.10/bin/deactivate
no change     /softs/tools/conda/2024.10/etc/profile.d/conda.sh
no change     /softs/tools/conda/2024.10/etc/fish/conf.d/conda.fish
no change     /softs/tools/conda/2024.10/shell/condabin/Conda.psm1
no change     /softs/tools/conda/2024.10/shell/condabin/conda-hook.ps1
no change     /softs/tools/conda/2024.10/lib/python3.12/site-packages/xontrib/conda.xsh
no change     /softs/tools/conda/2024.10/etc/profile.d/conda.csh
no change     /home/barreran/.bashrc
No action taken.
