<?xml version="1.0" encoding="ISO-8859-1"?>
<modeling>
 <generator>
  <i name="program" type="string">vasp </i>
  <i name="version" type="string">6.4.3  </i>
  <i name="subversion" type="string">19Mar24 (build Jul 15 2024 11:39:06) complex                          parallel </i>
  <i name="platform" type="string">LinuxGNU </i>
  <i name="date" type="string">2025 10 22 </i>
  <i name="time" type="string">15:59:53 </i>
 </generator>
 <incar>
  <i type="string" name="SYSTEM">sys</i>
  <i type="string" name="PREC">Accurate</i>
  <i type="int" name="NELM">   400</i>
  <i name="SYMPREC">      0.00010000</i>
  <i name="ENCUT">    700.00000000</i>
  <i type="int" name="ISMEAR">     1</i>
  <i name="SIGMA">      0.10000000</i>
  <i type="logical" name="LWAVE"> F  </i>
  <i type="logical" name="LELF"> T  </i>
 </incar>
 <primitive_cell>
  <structure name="primitive_cell" >
   <crystal>
    <varray name="basis" >
     <v>       2.96380000       0.00000000       0.00000000 </v>
     <v>       0.00000000       2.96380000       0.00000000 </v>
     <v>       0.00000000       0.00000000       4.18651000 </v>
    </varray>
    <i name="volume">     36.77476620 </i>
    <varray name="rec_basis" >
     <v>       0.33740468       0.00000000       0.00000000 </v>
     <v>       0.00000000       0.33740468       0.00000000 </v>
     <v>       0.00000000       0.00000000       0.23886244 </v>
    </varray>
   </crystal>
   <varray name="positions" >
    <v>       0.99999966       0.99999966       0.99999713 </v>
    <v>       0.49999966       0.49999966       0.49999857 </v>
    <v>       0.25639989       0.49999966       0.11579980 </v>
    <v>       0.74359977       0.49999966       0.11579980 </v>
    <v>       0.49999966       0.25639989       0.11579980 </v>
    <v>       0.49999966       0.74359977       0.11579980 </v>
    <v>       0.74359977       0.49999966       0.88419758 </v>
    <v>       0.25639989       0.49999966       0.88419758 </v>
    <v>       0.49999966       0.25639989       0.88419758 </v>
    <v>       0.49999966       0.74359977       0.88419758 </v>
    <v>       0.99999966       0.49999966       0.75829796 </v>
    <v>       0.49999966       0.99999966       0.75829796 </v>
    <v>       0.99999966       0.49999966       0.24169941 </v>
    <v>       0.49999966       0.99999966       0.24169941 </v>
    <v>       0.23730009       0.99999966       0.37319892 </v>
    <v>       0.76269991       0.99999966       0.37319892 </v>
    <v>       0.99999966       0.23730009       0.37319892 </v>
    <v>       0.99999966       0.76269991       0.37319892 </v>
    <v>       0.76269991       0.99999966       0.62679822 </v>
    <v>       0.23730009       0.99999966       0.62679822 </v>
    <v>       0.99999966       0.23730009       0.62679822 </v>
    <v>       0.99999966       0.76269991       0.62679822 </v>
   </varray>
  </structure>
  <varray name="primitive_index" >
   <v type="int" >        1 </v>
   <v type="int" >        2 </v>
   <v type="int" >        3 </v>
   <v type="int" >        4 </v>
   <v type="int" >        5 </v>
   <v type="int" >        6 </v>
   <v type="int" >        7 </v>
   <v type="int" >        8 </v>
   <v type="int" >        9 </v>
   <v type="int" >       10 </v>
   <v type="int" >       11 </v>
   <v type="int" >       12 </v>
   <v type="int" >       13 </v>
   <v type="int" >       14 </v>
   <v type="int" >       15 </v>
   <v type="int" >       16 </v>
   <v type="int" >       17 </v>
   <v type="int" >       18 </v>
   <v type="int" >       19 </v>
   <v type="int" >       20 </v>
   <v type="int" >       21 </v>
   <v type="int" >       22 </v>
  </varray>
 </primitive_cell>
 <kpoints>
  <generation param="Gamma">
   <v type="int" name="divisions">      17       17       11 </v>
   <v name="usershift">      0.00000000       0.00000000       0.00000000 </v>
   <v name="genvec1">      0.05882353       0.00000000       0.00000000 </v>
   <v name="genvec2">      0.00000000       0.05882353       0.00000000 </v>
   <v name="genvec3">      0.00000000       0.00000000       0.09090909 </v>
   <v name="shift">      0.00000000       0.00000000       0.00000000 </v>
  </generation>
  <varray name="kpointlist" >
   <v>       0.00000000       0.00000000       0.00000000 </v>
   <v>       0.05882353       0.00000000       0.00000000 </v>
   <v>       0.11764706       0.00000000       0.00000000 </v>
   <v>       0.17647059       0.00000000       0.00000000 </v>
   <v>       0.23529412       0.00000000       0.00000000 </v>
   <v>       0.29411765       0.00000000       0.00000000 </v>
   <v>       0.35294118       0.00000000       0.00000000 </v>
   <v>       0.41176471       0.00000000       0.00000000 </v>
   <v>       0.47058824       0.00000000       0.00000000 </v>
   <v>       0.05882353       0.05882353       0.00000000 </v>
   <v>       0.11764706       0.05882353       0.00000000 </v>
   <v>       0.17647059       0.05882353       0.00000000 </v>
   <v>       0.23529412       0.05882353       0.00000000 </v>
   <v>       0.29411765       0.05882353       0.00000000 </v>
   <v>       0.35294118       0.05882353       0.00000000 </v>
   <v>       0.41176471       0.05882353       0.00000000 </v>
   <v>       0.47058824       0.05882353       0.00000000 </v>
   <v>       0.11764706       0.11764706       0.00000000 </v>
   <v>       0.17647059       0.11764706       0.00000000 </v>
   <v>       0.23529412       0.11764706       0.00000000 </v>
   <v>       0.29411765       0.11764706       0.00000000 </v>
   <v>       0.35294118       0.11764706       0.00000000 </v>
   <v>       0.41176471       0.11764706       0.00000000 </v>
   <v>       0.47058824       0.11764706       0.00000000 </v>
   <v>       0.17647059       0.17647059       0.00000000 </v>
   <v>       0.23529412       0.17647059       0.00000000 </v>
   <v>       0.29411765       0.17647059       0.00000000 </v>
   <v>       0.35294118       0.17647059       0.00000000 </v>
   <v>       0.41176471       0.17647059       0.00000000 </v>
   <v>       0.47058824       0.17647059       0.00000000 </v>
   <v>       0.23529412       0.23529412       0.00000000 </v>
   <v>       0.29411765       0.23529412       0.00000000 </v>
   <v>       0.35294118       0.23529412       0.00000000 </v>
   <v>       0.41176471       0.23529412       0.00000000 </v>
   <v>       0.47058824       0.23529412       0.00000000 </v>
   <v>       0.29411765       0.29411765       0.00000000 </v>
   <v>       0.35294118       0.29411765       0.00000000 </v>
   <v>       0.41176471       0.29411765       0.00000000 </v>
   <v>       0.47058824       0.29411765       0.00000000 </v>
   <v>       0.35294118       0.35294118       0.00000000 </v>
   <v>       0.41176471       0.35294118       0.00000000 </v>
   <v>       0.47058824       0.35294118       0.00000000 </v>
   <v>       0.41176471       0.41176471       0.00000000 </v>
   <v>       0.47058824       0.41176471       0.00000000 </v>
   <v>       0.47058824       0.47058824       0.00000000 </v>
   <v>       0.00000000       0.00000000       0.09090909 </v>
   <v>       0.05882353       0.00000000       0.09090909 </v>
   <v>       0.11764706       0.00000000       0.09090909 </v>
   <v>       0.17647059       0.00000000       0.09090909 </v>
   <v>       0.23529412       0.00000000       0.09090909 </v>
   <v>       0.29411765       0.00000000       0.09090909 </v>
   <v>       0.35294118       0.00000000       0.09090909 </v>
   <v>       0.41176471       0.00000000       0.09090909 </v>
   <v>       0.47058824       0.00000000       0.09090909 </v>
   <v>       0.05882353       0.05882353       0.09090909 </v>
   <v>       0.11764706       0.05882353       0.09090909 </v>
   <v>       0.17647059       0.05882353       0.09090909 </v>
   <v>       0.23529412       0.05882353       0.09090909 </v>
   <v>       0.29411765       0.05882353       0.09090909 </v>
   <v>       0.35294118       0.05882353       0.09090909 </v>
   <v>       0.41176471       0.05882353       0.09090909 </v>
   <v>       0.47058824       0.05882353       0.09090909 </v>
   <v>       0.11764706       0.11764706       0.09090909 </v>
   <v>       0.17647059       0.11764706       0.09090909 </v>
   <v>       0.23529412       0.11764706       0.09090909 </v>
   <v>       0.29411765       0.11764706       0.09090909 </v>
   <v>       0.35294118       0.11764706       0.09090909 </v>
   <v>       0.41176471       0.11764706       0.09090909 </v>
   <v>       0.47058824       0.11764706       0.09090909 </v>
   <v>       0.17647059       0.17647059       0.09090909 </v>
   <v>       0.23529412       0.17647059       0.09090909 </v>
   <v>       0.29411765       0.17647059       0.09090909 </v>
   <v>       0.35294118       0.17647059       0.09090909 </v>
   <v>       0.41176471       0.17647059       0.09090909 </v>
   <v>       0.47058824       0.17647059       0.09090909 </v>
   <v>       0.23529412       0.23529412       0.09090909 </v>
   <v>       0.29411765       0.23529412       0.09090909 </v>
   <v>       0.35294118       0.23529412       0.09090909 </v>
   <v>       0.41176471       0.23529412       0.09090909 </v>
   <v>       0.47058824       0.23529412       0.09090909 </v>
   <v>       0.29411765       0.29411765       0.09090909 </v>
   <v>       0.35294118       0.29411765       0.09090909 </v>
   <v>       0.41176471       0.29411765       0.09090909 </v>
   <v>       0.47058824       0.29411765       0.09090909 </v>
   <v>       0.35294118       0.35294118       0.09090909 </v>
   <v>       0.41176471       0.35294118       0.09090909 </v>
   <v>       0.47058824       0.35294118       0.09090909 </v>
   <v>       0.41176471       0.41176471       0.09090909 </v>
   <v>       0.47058824       0.41176471       0.09090909 </v>
   <v>       0.47058824       0.47058824       0.09090909 </v>
   <v>       0.00000000       0.00000000       0.18181818 </v>
   <v>       0.05882353       0.00000000       0.18181818 </v>
   <v>       0.11764706       0.00000000       0.18181818 </v>
   <v>       0.17647059       0.00000000       0.18181818 </v>
   <v>       0.23529412       0.00000000       0.18181818 </v>
   <v>       0.29411765       0.00000000       0.18181818 </v>
   <v>       0.35294118       0.00000000       0.18181818 </v>
   <v>       0.41176471       0.00000000       0.18181818 </v>
   <v>       0.47058824       0.00000000       0.18181818 </v>
   <v>       0.05882353       0.05882353       0.18181818 </v>
   <v>       0.11764706       0.05882353       0.18181818 </v>
   <v>       0.17647059       0.05882353       0.18181818 </v>
   <v>       0.23529412       0.05882353       0.18181818 </v>
   <v>       0.29411765       0.05882353       0.18181818 </v>
   <v>       0.35294118       0.05882353       0.18181818 </v>
   <v>       0.41176471       0.05882353       0.18181818 </v>
   <v>       0.47058824       0.05882353       0.18181818 </v>
   <v>       0.11764706       0.11764706       0.18181818 </v>
   <v>       0.17647059       0.11764706       0.18181818 </v>
   <v>       0.23529412       0.11764706       0.18181818 </v>
   <v>       0.29411765       0.11764706       0.18181818 </v>
   <v>       0.35294118       0.11764706       0.18181818 </v>
   <v>       0.41176471       0.11764706       0.18181818 </v>
   <v>       0.47058824       0.11764706       0.18181818 </v>
   <v>       0.17647059       0.17647059       0.18181818 </v>
   <v>       0.23529412       0.17647059       0.18181818 </v>
   <v>       0.29411765       0.17647059       0.18181818 </v>
   <v>       0.35294118       0.17647059       0.18181818 </v>
   <v>       0.41176471       0.17647059       0.18181818 </v>
   <v>       0.47058824       0.17647059       0.18181818 </v>
   <v>       0.23529412       0.23529412       0.18181818 </v>
   <v>       0.29411765       0.23529412       0.18181818 </v>
   <v>       0.35294118       0.23529412       0.18181818 </v>
   <v>       0.41176471       0.23529412       0.18181818 </v>
   <v>       0.47058824       0.23529412       0.18181818 </v>
   <v>       0.29411765       0.29411765       0.18181818 </v>
   <v>       0.35294118       0.29411765       0.18181818 </v>
   <v>       0.41176471       0.29411765       0.18181818 </v>
   <v>       0.47058824       0.29411765       0.18181818 </v>
   <v>       0.35294118       0.35294118       0.18181818 </v>
   <v>       0.41176471       0.35294118       0.18181818 </v>
   <v>       0.47058824       0.35294118       0.18181818 </v>
   <v>       0.41176471       0.41176471       0.18181818 </v>
   <v>       0.47058824       0.41176471       0.18181818 </v>
   <v>       0.47058824       0.47058824       0.18181818 </v>
   <v>       0.00000000       0.00000000       0.27272727 </v>
   <v>       0.05882353       0.00000000       0.27272727 </v>
   <v>       0.11764706       0.00000000       0.27272727 </v>
   <v>       0.17647059       0.00000000       0.27272727 </v>
   <v>       0.23529412       0.00000000       0.27272727 </v>
   <v>       0.29411765       0.00000000       0.27272727 </v>
   <v>       0.35294118       0.00000000       0.27272727 </v>
   <v>       0.41176471       0.00000000       0.27272727 </v>
   <v>       0.47058824       0.00000000       0.27272727 </v>
   <v>       0.05882353       0.05882353       0.27272727 </v>
   <v>       0.11764706       0.05882353       0.27272727 </v>
   <v>       0.17647059       0.05882353       0.27272727 </v>
   <v>       0.23529412       0.05882353       0.27272727 </v>
   <v>       0.29411765       0.05882353       0.27272727 </v>
   <v>       0.35294118       0.05882353       0.27272727 </v>
   <v>       0.41176471       0.05882353       0.27272727 </v>
   <v>       0.47058824       0.05882353       0.27272727 </v>
   <v>       0.11764706       0.11764706       0.27272727 </v>
   <v>       0.17647059       0.11764706       0.27272727 </v>
   <v>       0.23529412       0.11764706       0.27272727 </v>
   <v>       0.29411765       0.11764706       0.27272727 </v>
   <v>       0.35294118       0.11764706       0.27272727 </v>
   <v>       0.41176471       0.11764706       0.27272727 </v>
   <v>       0.47058824       0.11764706       0.27272727 </v>
   <v>       0.17647059       0.17647059       0.27272727 </v>
   <v>       0.23529412       0.17647059       0.27272727 </v>
   <v>       0.29411765       0.17647059       0.27272727 </v>
   <v>       0.35294118       0.17647059       0.27272727 </v>
   <v>       0.41176471       0.17647059       0.27272727 </v>
   <v>       0.47058824       0.17647059       0.27272727 </v>
   <v>       0.23529412       0.23529412       0.27272727 </v>
   <v>       0.29411765       0.23529412       0.27272727 </v>
   <v>       0.35294118       0.23529412       0.27272727 </v>
   <v>       0.41176471       0.23529412       0.27272727 </v>
   <v>       0.47058824       0.23529412       0.27272727 </v>
   <v>       0.29411765       0.29411765       0.27272727 </v>
   <v>       0.35294118       0.29411765       0.27272727 </v>
   <v>       0.41176471       0.29411765       0.27272727 </v>
   <v>       0.47058824       0.29411765       0.27272727 </v>
   <v>       0.35294118       0.35294118       0.27272727 </v>
   <v>       0.41176471       0.35294118       0.27272727 </v>
   <v>       0.47058824       0.35294118       0.27272727 </v>
   <v>       0.41176471       0.41176471       0.27272727 </v>
   <v>       0.47058824       0.41176471       0.27272727 </v>
   <v>       0.47058824       0.47058824       0.27272727 </v>
   <v>       0.00000000       0.00000000       0.36363636 </v>
   <v>       0.05882353       0.00000000       0.36363636 </v>
   <v>       0.11764706       0.00000000       0.36363636 </v>
   <v>       0.17647059       0.00000000       0.36363636 </v>
   <v>       0.23529412       0.00000000       0.36363636 </v>
   <v>       0.29411765       0.00000000       0.36363636 </v>
   <v>       0.35294118       0.00000000       0.36363636 </v>
   <v>       0.41176471       0.00000000       0.36363636 </v>
   <v>       0.47058824       0.00000000       0.36363636 </v>
   <v>       0.05882353       0.05882353       0.36363636 </v>
   <v>       0.11764706       0.05882353       0.36363636 </v>
   <v>       0.17647059       0.05882353       0.36363636 </v>
   <v>       0.23529412       0.05882353       0.36363636 </v>
   <v>       0.29411765       0.05882353       0.36363636 </v>
   <v>       0.35294118       0.05882353       0.36363636 </v>
   <v>       0.41176471       0.05882353       0.36363636 </v>
   <v>       0.47058824       0.05882353       0.36363636 </v>
   <v>       0.11764706       0.11764706       0.36363636 </v>
   <v>       0.17647059       0.11764706       0.36363636 </v>
   <v>       0.23529412       0.11764706       0.36363636 </v>
   <v>       0.29411765       0.11764706       0.36363636 </v>
   <v>       0.35294118       0.11764706       0.36363636 </v>
   <v>       0.41176471       0.11764706       0.36363636 </v>
   <v>       0.47058824       0.11764706       0.36363636 </v>
   <v>       0.17647059       0.17647059       0.36363636 </v>
   <v>       0.23529412       0.17647059       0.36363636 </v>
   <v>       0.29411765       0.17647059       0.36363636 </v>
   <v>       0.35294118       0.17647059       0.36363636 </v>
   <v>       0.41176471       0.17647059       0.36363636 </v>
   <v>       0.47058824       0.17647059       0.36363636 </v>
   <v>       0.23529412       0.23529412       0.36363636 </v>
   <v>       0.29411765       0.23529412       0.36363636 </v>
   <v>       0.35294118       0.23529412       0.36363636 </v>
   <v>       0.41176471       0.23529412       0.36363636 </v>
   <v>       0.47058824       0.23529412       0.36363636 </v>
   <v>       0.29411765       0.29411765       0.36363636 </v>
   <v>       0.35294118       0.29411765       0.36363636 </v>
   <v>       0.41176471       0.29411765       0.36363636 </v>
   <v>       0.47058824       0.29411765       0.36363636 </v>
   <v>       0.35294118       0.35294118       0.36363636 </v>
   <v>       0.41176471       0.35294118       0.36363636 </v>
   <v>       0.47058824       0.35294118       0.36363636 </v>
   <v>       0.41176471       0.41176471       0.36363636 </v>
   <v>       0.47058824       0.41176471       0.36363636 </v>
   <v>       0.47058824       0.47058824       0.36363636 </v>
   <v>       0.00000000       0.00000000       0.45454545 </v>
   <v>       0.05882353       0.00000000       0.45454545 </v>
   <v>       0.11764706       0.00000000       0.45454545 </v>
   <v>       0.17647059       0.00000000       0.45454545 </v>
   <v>       0.23529412       0.00000000       0.45454545 </v>
   <v>       0.29411765       0.00000000       0.45454545 </v>
   <v>       0.35294118       0.00000000       0.45454545 </v>
   <v>       0.41176471       0.00000000       0.45454545 </v>
   <v>       0.47058824       0.00000000       0.45454545 </v>
   <v>       0.05882353       0.05882353       0.45454545 </v>
   <v>       0.11764706       0.05882353       0.45454545 </v>
   <v>       0.17647059       0.05882353       0.45454545 </v>
   <v>       0.23529412       0.05882353       0.45454545 </v>
   <v>       0.29411765       0.05882353       0.45454545 </v>
   <v>       0.35294118       0.05882353       0.45454545 </v>
   <v>       0.41176471       0.05882353       0.45454545 </v>
   <v>       0.47058824       0.05882353       0.45454545 </v>
   <v>       0.11764706       0.11764706       0.45454545 </v>
   <v>       0.17647059       0.11764706       0.45454545 </v>
   <v>       0.23529412       0.11764706       0.45454545 </v>
   <v>       0.29411765       0.11764706       0.45454545 </v>
   <v>       0.35294118       0.11764706       0.45454545 </v>
   <v>       0.41176471       0.11764706       0.45454545 </v>
   <v>       0.47058824       0.11764706       0.45454545 </v>
   <v>       0.17647059       0.17647059       0.45454545 </v>
   <v>       0.23529412       0.17647059       0.45454545 </v>
   <v>       0.29411765       0.17647059       0.45454545 </v>
   <v>       0.35294118       0.17647059       0.45454545 </v>
   <v>       0.41176471       0.17647059       0.45454545 </v>
   <v>       0.47058824       0.17647059       0.45454545 </v>
   <v>       0.23529412       0.23529412       0.45454545 </v>
   <v>       0.29411765       0.23529412       0.45454545 </v>
   <v>       0.35294118       0.23529412       0.45454545 </v>
   <v>       0.41176471       0.23529412       0.45454545 </v>
   <v>       0.47058824       0.23529412       0.45454545 </v>
   <v>       0.29411765       0.29411765       0.45454545 </v>
   <v>       0.35294118       0.29411765       0.45454545 </v>
   <v>       0.41176471       0.29411765       0.45454545 </v>
   <v>       0.47058824       0.29411765       0.45454545 </v>
   <v>       0.35294118       0.35294118       0.45454545 </v>
   <v>       0.41176471       0.35294118       0.45454545 </v>
   <v>       0.47058824       0.35294118       0.45454545 </v>
   <v>       0.41176471       0.41176471       0.45454545 </v>
   <v>       0.47058824       0.41176471       0.45454545 </v>
   <v>       0.47058824       0.47058824       0.45454545 </v>
  </varray>
  <varray name="weights" >
   <v>       0.00031456 </v>
   <v>       0.00125826 </v>
   <v>       0.00125826 </v>
   <v>       0.00125826 </v>
   <v>       0.00125826 </v>
   <v>       0.00125826 </v>
   <v>       0.00125826 </v>
   <v>       0.00125826 </v>
   <v>       0.00125826 </v>
   <v>       0.00125826 </v>
   <v>       0.00251651 </v>
   <v>       0.00251651 </v>
   <v>       0.00251651 </v>
   <v>       0.00251651 </v>
   <v>       0.00251651 </v>
   <v>       0.00251651 </v>
   <v>       0.00251651 </v>
   <v>       0.00125826 </v>
   <v>       0.00251651 </v>
   <v>       0.00251651 </v>
   <v>       0.00251651 </v>
   <v>       0.00251651 </v>
   <v>       0.00251651 </v>
   <v>       0.00251651 </v>
   <v>       0.00125826 </v>
   <v>       0.00251651 </v>
   <v>       0.00251651 </v>
   <v>       0.00251651 </v>
   <v>       0.00251651 </v>
   <v>       0.00251651 </v>
   <v>       0.00125826 </v>
   <v>       0.00251651 </v>
   <v>       0.00251651 </v>
   <v>       0.00251651 </v>
   <v>       0.00251651 </v>
   <v>       0.00125826 </v>
   <v>       0.00251651 </v>
   <v>       0.00251651 </v>
   <v>       0.00251651 </v>
   <v>       0.00125826 </v>
   <v>       0.00251651 </v>
   <v>       0.00251651 </v>
   <v>       0.00125826 </v>
   <v>       0.00251651 </v>
   <v>       0.00125826 </v>
   <v>       0.00062913 </v>
   <v>       0.00251651 </v>
   <v>       0.00251651 </v>
   <v>       0.00251651 </v>
   <v>       0.00251651 </v>
   <v>       0.00251651 </v>
   <v>       0.00251651 </v>
   <v>       0.00251651 </v>
   <v>       0.00251651 </v>
   <v>       0.00251651 </v>
   <v>       0.00503303 </v>
   <v>       0.00503303 </v>
   <v>       0.00503303 </v>
   <v>       0.00503303 </v>
   <v>       0.00503303 </v>
   <v>       0.00503303 </v>
   <v>       0.00503303 </v>
   <v>       0.00251651 </v>
   <v>       0.00503303 </v>
   <v>       0.00503303 </v>
   <v>       0.00503303 </v>
   <v>       0.00503303 </v>
   <v>       0.00503303 </v>
   <v>       0.00503303 </v>
   <v>       0.00251651 </v>
   <v>       0.00503303 </v>
   <v>       0.00503303 </v>
   <v>       0.00503303 </v>
   <v>       0.00503303 </v>
   <v>       0.00503303 </v>
   <v>       0.00251651 </v>
   <v>       0.00503303 </v>
   <v>       0.00503303 </v>
   <v>       0.00503303 </v>
   <v>       0.00503303 </v>
   <v>       0.00251651 </v>
   <v>       0.00503303 </v>
   <v>       0.00503303 </v>
   <v>       0.00503303 </v>
   <v>       0.00251651 </v>
   <v>       0.00503303 </v>
   <v>       0.00503303 </v>
   <v>       0.00251651 </v>
   <v>       0.00503303 </v>
   <v>       0.00251651 </v>
   <v>       0.00062913 </v>
   <v>       0.00251651 </v>
   <v>       0.00251651 </v>
   <v>       0.00251651 </v>
   <v>       0.00251651 </v>
   <v>       0.00251651 </v>
   <v>       0.00251651 </v>
   <v>       0.00251651 </v>
   <v>       0.00251651 </v>
   <v>       0.00251651 </v>
   <v>       0.00503303 </v>
   <v>       0.00503303 </v>
   <v>       0.00503303 </v>
   <v>       0.00503303 </v>
   <v>       0.00503303 </v>
   <v>       0.00503303 </v>
   <v>       0.00503303 </v>
   <v>       0.00251651 </v>
   <v>       0.00503303 </v>
   <v>       0.00503303 </v>
   <v>       0.00503303 </v>
   <v>       0.00503303 </v>
   <v>       0.00503303 </v>
   <v>       0.00503303 </v>
   <v>       0.00251651 </v>
   <v>       0.00503303 </v>
   <v>       0.00503303 </v>
   <v>       0.00503303 </v>
   <v>       0.00503303 </v>
   <v>       0.00503303 </v>
   <v>       0.00251651 </v>
   <v>       0.00503303 </v>
   <v>       0.00503303 </v>
   <v>       0.00503303 </v>
   <v>       0.00503303 </v>
   <v>       0.00251651 </v>
   <v>       0.00503303 </v>
   <v>       0.00503303 </v>
   <v>       0.00503303 </v>
   <v>       0.00251651 </v>
   <v>       0.00503303 </v>
   <v>       0.00503303 </v>
   <v>       0.00251651 </v>
   <v>       0.00503303 </v>
   <v>       0.00251651 </v>
   <v>       0.00062913 </v>
   <v>       0.00251651 </v>
   <v>       0.00251651 </v>
   <v>       0.00251651 </v>
   <v>       0.00251651 </v>
   <v>       0.00251651 </v>
   <v>       0.00251651 </v>
   <v>       0.00251651 </v>
   <v>       0.00251651 </v>
   <v>       0.00251651 </v>
   <v>       0.00503303 </v>
   <v>       0.00503303 </v>
   <v>       0.00503303 </v>
   <v>       0.00503303 </v>
   <v>       0.00503303 </v>
   <v>       0.00503303 </v>
   <v>       0.00503303 </v>
   <v>       0.00251651 </v>
   <v>       0.00503303 </v>
   <v>       0.00503303 </v>
   <v>       0.00503303 </v>
   <v>       0.00503303 </v>
   <v>       0.00503303 </v>
   <v>       0.00503303 </v>
   <v>       0.00251651 </v>
   <v>       0.00503303 </v>
   <v>       0.00503303 </v>
   <v>       0.00503303 </v>
   <v>       0.00503303 </v>
   <v>       0.00503303 </v>
   <v>       0.00251651 </v>
   <v>       0.00503303 </v>
   <v>       0.00503303 </v>
   <v>       0.00503303 </v>
   <v>       0.00503303 </v>
   <v>       0.00251651 </v>
   <v>       0.00503303 </v>
   <v>       0.00503303 </v>
   <v>       0.00503303 </v>
   <v>       0.00251651 </v>
   <v>       0.00503303 </v>
   <v>       0.00503303 </v>
   <v>       0.00251651 </v>
   <v>       0.00503303 </v>
   <v>       0.00251651 </v>
   <v>       0.00062913 </v>
   <v>       0.00251651 </v>
   <v>       0.00251651 </v>
   <v>       0.00251651 </v>
   <v>       0.00251651 </v>
   <v>       0.00251651 </v>
   <v>       0.00251651 </v>
   <v>       0.00251651 </v>
   <v>       0.00251651 </v>
   <v>       0.00251651 </v>
   <v>       0.00503303 </v>
   <v>       0.00503303 </v>
   <v>       0.00503303 </v>
   <v>       0.00503303 </v>
   <v>       0.00503303 </v>
   <v>       0.00503303 </v>
   <v>       0.00503303 </v>
   <v>       0.00251651 </v>
   <v>       0.00503303 </v>
   <v>       0.00503303 </v>
   <v>       0.00503303 </v>
   <v>       0.00503303 </v>
   <v>       0.00503303 </v>
   <v>       0.00503303 </v>
   <v>       0.00251651 </v>
   <v>       0.00503303 </v>
   <v>       0.00503303 </v>
   <v>       0.00503303 </v>
   <v>       0.00503303 </v>
   <v>       0.00503303 </v>
   <v>       0.00251651 </v>
   <v>       0.00503303 </v>
   <v>       0.00503303 </v>
   <v>       0.00503303 </v>
   <v>       0.00503303 </v>
   <v>       0.00251651 </v>
   <v>       0.00503303 </v>
   <v>       0.00503303 </v>
   <v>       0.00503303 </v>
   <v>       0.00251651 </v>
   <v>       0.00503303 </v>
   <v>       0.00503303 </v>
   <v>       0.00251651 </v>
   <v>       0.00503303 </v>
   <v>       0.00251651 </v>
   <v>       0.00062913 </v>
   <v>       0.00251651 </v>
   <v>       0.00251651 </v>
   <v>       0.00251651 </v>
   <v>       0.00251651 </v>
   <v>       0.00251651 </v>
   <v>       0.00251651 </v>
   <v>       0.00251651 </v>
   <v>       0.00251651 </v>
   <v>       0.00251651 </v>
   <v>       0.00503303 </v>
   <v>       0.00503303 </v>
   <v>       0.00503303 </v>
   <v>       0.00503303 </v>
   <v>       0.00503303 </v>
   <v>       0.00503303 </v>
   <v>       0.00503303 </v>
   <v>       0.00251651 </v>
   <v>       0.00503303 </v>
   <v>       0.00503303 </v>
   <v>       0.00503303 </v>
   <v>       0.00503303 </v>
   <v>       0.00503303 </v>
   <v>       0.00503303 </v>
   <v>       0.00251651 </v>
   <v>       0.00503303 </v>
   <v>       0.00503303 </v>
   <v>       0.00503303 </v>
   <v>       0.00503303 </v>
   <v>       0.00503303 </v>
   <v>       0.00251651 </v>
   <v>       0.00503303 </v>
   <v>       0.00503303 </v>
   <v>       0.00503303 </v>
   <v>       0.00503303 </v>
   <v>       0.00251651 </v>
   <v>       0.00503303 </v>
   <v>       0.00503303 </v>
   <v>       0.00503303 </v>
   <v>       0.00251651 </v>
   <v>       0.00503303 </v>
   <v>       0.00503303 </v>
   <v>       0.00251651 </v>
   <v>       0.00503303 </v>
   <v>       0.00251651 </v>
  </varray>
 </kpoints>
 <parameters>
  <separator name="general" >
   <i type="string" name="SYSTEM">sys</i>
   <i type="logical" name="LCOMPAT"> F  </i>
  </separator>
  <separator name="electronic" >
   <i type="string" name="PREC">accura</i>
   <i name="ENMAX">    700.00000000</i>
   <i name="ENAUG">    470.88900000</i>
   <i name="EDIFF">      0.00010000</i>
   <i type="int" name="IALGO">    38</i>
   <i type="int" name="IWAVPR">    10</i>
   <i type="int" name="NBANDS">    32</i>
   <i type="int" name="NBANDSLOW">    -1</i>
   <i type="int" name="NBANDSHIGH">    -1</i>
   <i name="NELECT">     41.00000000</i>
   <i type="int" name="TURBO">     0</i>
   <i type="int" name="IRESTART">     0</i>
   <i type="int" name="NREBOOT">     0</i>
   <i type="int" name="NMIN">     0</i>
   <i name="EREF">      0.00000000</i>
   <separator name="electronic smearing" >
    <i type="int" name="ISMEAR">     1</i>
    <i name="SIGMA">      0.10000000</i>
    <i name="KSPACING">      0.50000000</i>
    <i type="logical" name="KGAMMA"> T  </i>
    <i type="logical" name="KBLOWUP"> T  </i>
   </separator>
   <separator name="electronic projectors" >
    <i type="logical" name="LREAL"> F  </i>
    <v name="ROPT">      0.00000000      0.00000000      0.00000000</v>
    <i type="int" name="LMAXPAW">  -100</i>
    <i type="int" name="LMAXMIX">     2</i>
    <i type="logical" name="NLSPLINE"> F  </i>
   </separator>
   <separator name="electronic startup" >
    <i type="int" name="ISTART">     0</i>
    <i type="int" name="ICHARG">     2</i>
    <i type="int" name="INIWAV">     1</i>
   </separator>
   <separator name="electronic spin" >
    <i type="int" name="ISPIN">     1</i>
    <i type="logical" name="LNONCOLLINEAR"> F  </i>
    <v name="MAGMOM">      1.00000000      1.00000000      1.00000000      1.00000000      1.00000000      1.00000000      1.00000000      1.00000000      1.00000000      1.00000000      1.00000000      1.00000000      1.00000000      1.00000000      1.00000000      1.00000000      1.00000000      1.00000000      1.00000000      1.00000000
      1.00000000      1.00000000</v>
    <i name="NUPDOWN">     -1.00000000</i>
    <i type="logical" name="LSORBIT"> F  </i>
    <v name="SAXIS">      0.00000000      0.00000000      1.00000000</v>
    <i type="logical" name="LSPIRAL"> F  </i>
    <v name="QSPIRAL">      0.00000000      0.00000000      0.00000000</v>
    <i type="logical" name="LZEROZ"> F  </i>
   </separator>
   <separator name="electronic exchange-correlation" >
    <i type="logical" name="LASPH"> F  </i>
   </separator>
   <separator name="electronic convergence" >
    <i type="int" name="NELM">   400</i>
    <i type="int" name="NELMDL">    -5</i>
    <i type="int" name="NELMIN">     2</i>
    <i name="ENINI">    700.00000000</i>
    <separator name="electronic convergence detail" >
     <i type="logical" name="LDIAG"> T  </i>
     <i type="logical" name="LSUBROT"> F  </i>
     <i name="WEIMIN">      0.00000000</i>
     <i name="EBREAK">      0.00000078</i>
     <i name="DEPER">      0.30000000</i>
     <i type="int" name="NRMM">     4</i>
     <i name="TIME">      0.40000000</i>
    </separator>
   </separator>
   <separator name="electronic mixer" >
    <i name="AMIX">      0.40000000</i>
    <i name="BMIX">      1.00000000</i>
    <i name="AMIN">      0.10000000</i>
    <i name="AMIX_MAG">      1.60000000</i>
    <i name="BMIX_MAG">      1.00000000</i>
    <separator name="electronic mixer details" >
     <i type="int" name="IMIX">     4</i>
     <i type="logical" name="MIXFIRST"> F  </i>
     <i type="int" name="MAXMIX">   -45</i>
     <i name="WC">    100.00000000</i>
     <i type="int" name="INIMIX">     1</i>
     <i type="int" name="MIXPRE">     1</i>
     <i type="int" name="MREMOVE">     5</i>
    </separator>
   </separator>
   <separator name="electronic dipolcorrection" >
    <i type="logical" name="LDIPOL"> F  </i>
    <i type="logical" name="LMONO"> F  </i>
    <i type="int" name="IDIPOL">     0</i>
    <i name="EPSILON">      1.00000000</i>
    <v name="DIPOL">   -100.00000000   -100.00000000   -100.00000000</v>
    <i name="EFIELD">      0.00000000</i>
    <i type="logical" name="LVACPOTAV"> F  </i>
   </separator>
  </separator>
  <separator name="grids" >
   <i type="int" name="NGX">    28</i>
   <i type="int" name="NGY">    28</i>
   <i type="int" name="NGZ">    36</i>
   <i type="int" name="NGXF">    56</i>
   <i type="int" name="NGYF">    56</i>
   <i type="int" name="NGZF">    72</i>
   <i type="logical" name="ADDGRID"> F  </i>
  </separator>
  <separator name="ionic" >
   <i type="int" name="NSW">     0</i>
   <i type="int" name="IBRION">    -1</i>
   <i type="int" name="MDALGO">     0</i>
   <i type="int" name="ISIF">     2</i>
   <i name="PSTRESS">      0.00000000</i>
   <i name="EDIFFG">      0.00100000</i>
   <i type="int" name="NFREE">     0</i>
   <i name="POTIM">      0.50000000</i>
   <i name="SMASS">     -3.00000000</i>
   <i name="SCALEE">      1.00000000</i>
  </separator>
  <separator name="ionic md" >
   <i name="TEBEG">      0.00010000</i>
   <i name="TEEND">      0.00010000</i>
   <i type="int" name="NBLOCK">     1</i>
   <i type="int" name="KBLOCK">     1</i>
   <i type="int" name="NPACO">   256</i>
   <i name="APACO">     10.00000000</i>
  </separator>
  <separator name="symmetry" >
   <i type="int" name="ISYM">     2</i>
   <i name="SYMPREC">      0.00010000</i>
  </separator>
  <separator name="dos" >
   <i type="int" name="LORBIT">     0</i>
   <v name="RWIGS">     -1.00000000     -1.00000000     -1.00000000</v>
   <i type="int" name="NEDOS">   301</i>
   <i name="EMIN">     10.00000000</i>
   <i name="EMAX">    -10.00000000</i>
   <i name="EFERMI">      0.00000000</i>
  </separator>
  <separator name="writing" >
   <i type="int" name="NWRITE">     2</i>
   <i type="logical" name="LWAVE"> F  </i>
   <i type="logical" name="LDOWNSAMPLE"> F  </i>
   <i type="logical" name="LCHARG"> T  </i>
   <i type="logical" name="LPARD"> F  </i>
   <i type="logical" name="LVTOT"> F  </i>
   <i type="logical" name="LVHAR"> F  </i>
   <i type="logical" name="LELF"> T  </i>
   <i type="logical" name="LOPTICS"> F  </i>
   <v name="STM">      0.00000000      0.00000000      0.00000000      0.00000000      0.00000000      0.00000000      0.00000000</v>
  </separator>
  <separator name="performance" >
   <i type="int" name="NPAR">     4</i>
   <i type="int" name="NSIM">     4</i>
   <i type="int" name="NBLK">    -1</i>
   <i type="logical" name="LPLANE"> T  </i>
   <i type="logical" name="LSCALAPACK"> T  </i>
   <i type="logical" name="LSCAAWARE"> T  </i>
   <i type="logical" name="LSCALU"> F  </i>
   <i type="logical" name="LASYNC"> F  </i>
   <i type="logical" name="LORBITALREAL"> F  </i>
  </separator>
  <separator name="miscellaneous" >
   <i type="int" name="IDIOT">     3</i>
   <i type="int" name="PHON_NSTRUCT">    -1</i>
   <i type="logical" name="LMUSIC"> F  </i>
   <v name="POMASS">     40.07800000     88.90600000      1.00000000</v>
   <v name="DARWINR">      0.00000000      0.00000000      0.00000000</v>
   <v name="DARWINV">      1.00000000      1.00000000      1.00000000</v>
   <i type="logical" name="LCORR"> T  </i>
  </separator>
  <i type="logical" name="GGA_COMPAT"> T  </i>
  <i type="logical" name="LBERRY"> F  </i>
  <i type="int" name="ICORELEVEL">     0</i>
  <i type="logical" name="LDAU"> F  </i>
  <i type="int" name="I_CONSTRAINED_M">     0</i>
  <separator name="electronic exchange-correlation" >
   <i type="string" name="GGA    ">PE</i>
   <i type="string" name="XC_C">1</i>
   <i type="int" name="VOSKOWN">     0</i>
   <i type="logical" name="LHFCALC"> F  </i>
   <i type="string" name="PRECFOCK"></i>
   <i type="logical" name="LSYMGRAD"> F  </i>
   <i type="logical" name="LHFONE"> F  </i>
   <i type="logical" name="LRHFCALC"> F  </i>
   <i type="logical" name="LTHOMAS"> F  </i>
   <i type="logical" name="LMODELHF"> F  </i>
   <i type="logical" name="LFOCKACE"> F  </i>
   <i name="ENCUT4O">     -1.00000000</i>
   <i type="int" name="EXXOEP">     0</i>
   <i type="int" name="FOURORBIT">     0</i>
   <i name="AEXX">      0.00000000</i>
   <i name="HFALPHA">      0.00000000</i>
   <i name="MCALPHA">      0.00000000</i>
   <i name="ALDAX">      1.00000000</i>
   <i name="AGGAX">      1.00000000</i>
   <i name="AMGGAX">      1.00000000</i>
   <i name="ALDAC">      1.00000000</i>
   <i name="AGGAC">      1.00000000</i>
   <i name="AMGGAC">      1.00000000</i>
   <i type="int" name="NKREDX">     1</i>
   <i type="int" name="NKREDY">     1</i>
   <i type="int" name="NKREDZ">     1</i>
   <i type="logical" name="SHIFTRED"> F  </i>
   <i type="logical" name="ODDONLY"> F  </i>
   <i type="logical" name="EVENONLY"> F  </i>
   <i type="int" name="LMAXFOCK">     0</i>
   <i type="int" name="NMAXFOCKAE">     0</i>
   <i type="logical" name="LFOCKAEDFT"> F  </i>
   <i name="HFSCREEN">      0.00000000</i>
   <i name="HFSCREENC">      0.00000000</i>
   <i type="int" name="NBANDSGWLOW">     0</i>
  </separator>
  <separator name="vdW DFT" >
   <i type="logical" name="LUSE_VDW"> F  </i>
   <i type="int" name="IVDW_NL">    -1</i>
   <i type="logical" name="LSPIN_VDW"> F  </i>
   <i name="ZAB_VDW">     -0.84910000</i>
   <i name="GAMMA_VDW">      1.39626340</i>
   <i name="ALPHA_VDW">      0.00000000</i>
   <i name="PARAM1">      0.12340000</i>
   <i name="PARAM2">      1.00000000</i>
   <i name="BPARAM">      6.30000000</i>
   <i name="CPARAM">      0.00930000</i>
  </separator>
  <separator name="model GW" >
   <i type="int" name="MODEL_GW">     0</i>
   <i name="MODEL_EPS0">      1.00294817</i>
   <i name="MODEL_ALPHA">      1.00000000</i>
  </separator>
  <separator name="linear response parameters" >
   <i type="logical" name="LEPSILON"> F  </i>
   <i type="logical" name="LRPA"> F  </i>
   <i type="logical" name="LNABLA"> F  </i>
   <i type="logical" name="LVEL"> F  </i>
   <i name="CSHIFT">      0.10000000</i>
   <i name="OMEGAMAX">     -1.00000000</i>
   <i name="DEG_THRESHOLD">      0.00200000</i>
   <i name="RTIME">     -0.10000000</i>
   <i name="WPLASMAI">      0.00000000</i>
   <v name="DFIELD">      0.00000000      0.00000000      0.00000000</v>
   <v name="WPLASMA">      0.00000000      0.00000000      0.00000000      0.00000000      0.00000000      0.00000000      0.00000000      0.00000000      0.00000000</v>
  </separator>
  <separator name="orbital magnetization" >
   <i type="logical" name="NUCIND"> F  </i>
   <v name="MAGPOS">      0.00000000      0.00000000      0.00000000</v>
   <i type="logical" name="LNICSALL"> T  </i>
   <i type="logical" name="ORBITALMAG"> F  </i>
   <i type="logical" name="LMAGBLOCH"> F  </i>
   <i type="logical" name="LCHIMAG"> F  </i>
   <i type="logical" name="LGAUGE"> T  </i>
   <i type="int" name="MAGATOM">     0</i>
   <v name="MAGDIPOL">      0.00000000      0.00000000      0.00000000</v>
   <v name="AVECCONST">      0.00000000      0.00000000      0.00000000</v>
  </separator>
  <separator name="response functions" >
   <i type="logical" name="LALL_IN_ONE"> F  </i>
   <i type="int" name="IALL_IN_ONE">    -1</i>
   <i type="int" name="NBANDS_WAVE">    -1</i>
   <i type="logical" name="LFINITE_TEMPERATURE"> F  </i>
   <i type="logical" name="LADDER"> F  </i>
   <i type="logical" name="LRPAFORCE"> F  </i>
   <i type="logical" name="LFXC"> F  </i>
   <i type="logical" name="LHARTREE"> T  </i>
   <i type="int" name="IBSE">     0</i>
   <v type="int" name="KPOINT">    -1     0     0     0</v>
   <i type="logical" name="LTCTC"> F  </i>
   <i type="logical" name="LTCTE"> F  </i>
   <i type="logical" name="LTETE"> F  </i>
   <i type="logical" name="LTRIPLET"> F  </i>
   <i type="logical" name="LFXCEPS"> F  </i>
   <i type="logical" name="LFXHEG"> F  </i>
   <i type="int" name="NATURALO">     2</i>
   <i type="logical" name="LHOLEGF"> F  </i>
   <i type="logical" name="L2ORDER"> F  </i>
   <i type="logical" name="LDMP1"> F  </i>
   <i type="logical" name="LMP2LT"> F  </i>
   <i type="logical" name="LSMP2LT"> F  </i>
   <i type="logical" name="LGWLF"> F  </i>
   <i name="ENCUTGW">     -1.60000002</i>
   <i name="ENCUTGWSOFT">     -1.60000002</i>
   <i name="ENCUTLF">     -1.00000000</i>
   <i type="logical" name="ESF_SPLINES"> F  </i>
   <i name="ESF_CONV">      0.01000000</i>
   <i type="int" name="ESF_NINTER">    15</i>
   <i type="int" name="LMAXMP2">    -1</i>
   <i name="SCISSOR">      0.00000000</i>
   <i type="int" name="NOMEGA">     0</i>
   <i type="int" name="NOMEGAR">     0</i>
   <i type="int" name="NBANDSGW">    -1</i>
   <i type="int" name="NBANDSO">    -1</i>
   <i type="int" name="NBANDSV">    -1</i>
   <i type="int" name="NELMGW">     1</i>
   <i type="int" name="NELMHF">     1</i>
   <i type="int" name="DIM">     3</i>
   <i type="int" name="IESPILON">     4</i>
   <i type="int" name="ANTIRES">     0</i>
   <i name="OMEGAMAX">    -30.00000000</i>
   <i name="OMEGAMIN">    -30.00000000</i>
   <i name="OMEGATL">   -200.00000000</i>
   <i type="int" name="OMEGAGRID">     0</i>
   <i name="CSHIFT">     -0.10000000</i>
   <i type="logical" name="LSELFENERGY"> F  </i>
   <i type="logical" name="LSPECTRAL"> F  </i>
   <i type="logical" name="LSPECTRALGW"> F  </i>
   <i type="logical" name="LSINGLES"> F  </i>
   <i type="logical" name="LFERMIGW"> F  </i>
   <i type="logical" name="ODDONLYGW"> F  </i>
   <i type="logical" name="EVENONLYGW"> F  </i>
   <i type="int" name="NKREDLFX">     1</i>
   <i type="int" name="NKREDLFY">     1</i>
   <i type="int" name="NKREDLFZ">     1</i>
   <i type="int" name="MAXMEM">  2800</i>
   <i type="int" name="TELESCOPE">     0</i>
   <i type="int" name="NTAUPAR">    -1</i>
   <i type="int" name="NOMEGAPAR">    -1</i>
   <i name="DAMP_NEWTON">      0.80000001</i>
   <i name="LAMBDA">      1.00000000</i>
  </separator>
  <separator name="External order field" >
   <i name="OFIELD_KAPPA">      0.00000000</i>
   <v name="OFIELD_K">      0.00000000      0.00000000      0.00000000</v>
   <i name="OFIELD_Q6_NEAR">      0.00000000</i>
   <i name="OFIELD_Q6_FAR">      0.00000000</i>
   <i name="OFIELD_A">      0.00000000</i>
  </separator>
  <separator name="optional k-points parameters" >
   <i type="int" name="KPOINTS_OPT_MODE">     1</i>
   <i type="logical" name="LKPOINTS_OPT"> F  </i>
  </separator>
 </parameters>
 <atominfo>
  <atoms>      22 </atoms>
  <types>       3 </types>
  <array name="atoms" >
   <dimension dim="1">ion</dimension>
   <field type="string">element</field>
   <field type="int">atomtype</field>
   <set>
    <rc><c>Ca</c><c>   1</c></rc>
    <rc><c>Y </c><c>   2</c></rc>
    <rc><c>H </c><c>   3</c></rc>
    <rc><c>H </c><c>   3</c></rc>
    <rc><c>H </c><c>   3</c></rc>
    <rc><c>H </c><c>   3</c></rc>
    <rc><c>H </c><c>   3</c></rc>
    <rc><c>H </c><c>   3</c></rc>
    <rc><c>H </c><c>   3</c></rc>
    <rc><c>H </c><c>   3</c></rc>
    <rc><c>H </c><c>   3</c></rc>
    <rc><c>H </c><c>   3</c></rc>
    <rc><c>H </c><c>   3</c></rc>
    <rc><c>H </c><c>   3</c></rc>
    <rc><c>H </c><c>   3</c></rc>
    <rc><c>H </c><c>   3</c></rc>
    <rc><c>H </c><c>   3</c></rc>
    <rc><c>H </c><c>   3</c></rc>
    <rc><c>H </c><c>   3</c></rc>
    <rc><c>H </c><c>   3</c></rc>
    <rc><c>H </c><c>   3</c></rc>
    <rc><c>H </c><c>   3</c></rc>
   </set>
  </array>
  <array name="atomtypes" >
   <dimension dim="1">type</dimension>
   <field type="int">atomspertype</field>
   <field type="string">element</field>
   <field>mass</field>
   <field>valence</field>
   <field type="string">pseudopotential</field>
   <set>
    <rc><c>   1</c><c>Ca</c><c>     40.07800000</c><c>     10.00000000</c><c>  PAW_PBE Ca_sv 06Sep2000               </c></rc>
    <rc><c>   1</c><c>Y </c><c>     88.90600000</c><c>     11.00000000</c><c>  PAW_PBE Y_sv 25May2007                </c></rc>
    <rc><c>  20</c><c>H </c><c>      1.00000000</c><c>      1.00000000</c><c>  PAW_PBE H 15Jun2001                   </c></rc>
   </set>
  </array>
 </atominfo>
 <structure name="initialpos" >
  <crystal>
   <varray name="basis" >
    <v>       2.96380000       0.00000000       0.00000000 </v>
    <v>       0.00000000       2.96380000       0.00000000 </v>
    <v>       0.00000000       0.00000000       4.18651000 </v>
   </varray>
   <i name="volume">     36.77476620 </i>
   <varray name="rec_basis" >
    <v>       0.33740468       0.00000000       0.00000000 </v>
    <v>       0.00000000       0.33740468       0.00000000 </v>
    <v>       0.00000000       0.00000000       0.23886244 </v>
   </varray>
  </crystal>
  <varray name="positions" >
   <v>       0.99999966       0.99999966       0.99999713 </v>
   <v>       0.49999966       0.49999966       0.49999857 </v>
   <v>       0.25639989       0.49999966       0.11579980 </v>
   <v>       0.74359977       0.49999966       0.11579980 </v>
   <v>       0.49999966       0.25639989       0.11579980 </v>
   <v>       0.49999966       0.74359977       0.11579980 </v>
   <v>       0.74359977       0.49999966       0.88419758 </v>
   <v>       0.25639989       0.49999966       0.88419758 </v>
   <v>       0.49999966       0.25639989       0.88419758 </v>
   <v>       0.49999966       0.74359977       0.88419758 </v>
   <v>       0.99999966       0.49999966       0.75829796 </v>
   <v>       0.49999966       0.99999966       0.75829796 </v>
   <v>       0.99999966       0.49999966       0.24169941 </v>
   <v>       0.49999966       0.99999966       0.24169941 </v>
   <v>       0.23730009       0.99999966       0.37319892 </v>
   <v>       0.76269991       0.99999966       0.37319892 </v>
   <v>       0.99999966       0.23730009       0.37319892 </v>
   <v>       0.99999966       0.76269991       0.37319892 </v>
   <v>       0.76269991       0.99999966       0.62679822 </v>
   <v>       0.23730009       0.99999966       0.62679822 </v>
   <v>       0.99999966       0.23730009       0.62679822 </v>
   <v>       0.99999966       0.76269991       0.62679822 </v>
  </varray>
 </structure>
 <calculation>
  <scstep>
   <time name="dav">    2.88    2.90</time>
   <time name="total">    2.90    2.91</time>
   <energy>
    <i name="alphaZ">    424.99805480 </i>
    <i name="ewald">  -2604.42514785 </i>
    <i name="hartreedc">   -212.29980324 </i>
    <i name="XCdc">    171.05011630 </i>
    <i name="pawpsdc">   1591.03516391 </i>
    <i name="pawaedc">  -1567.74360416 </i>
    <i name="eentropy">     -0.00009580 </i>
    <i name="bandstr">    265.83710647 </i>
    <i name="atom">   2302.76737453 </i>
    <i name="e_fr_energy">    371.21916496 </i>
    <i name="e_wo_entrp">    371.21926076 </i>
    <i name="e_0_energy">    371.21919689 </i>
   </energy>
  </scstep>
  <scstep>
   <time name="dav">    3.03    3.04</time>
   <time name="total">    3.03    3.05</time>
   <energy>
    <i name="e_fr_energy">      9.62685310 </i>
    <i name="e_wo_entrp">      9.62700717 </i>
    <i name="e_0_energy">      9.62690446 </i>
   </energy>
  </scstep>
  <scstep>
   <time name="dav">    3.28    3.30</time>
   <time name="total">    3.29    3.30</time>
   <energy>
    <i name="e_fr_energy">    -11.44548464 </i>
    <i name="e_wo_entrp">    -11.44539855 </i>
    <i name="e_0_energy">    -11.44545594 </i>
   </energy>
  </scstep>
  <scstep>
   <time name="dav">    3.41    3.43</time>
   <time name="total">    3.41    3.43</time>
   <energy>
    <i name="e_fr_energy">    -12.20317819 </i>
    <i name="e_wo_entrp">    -12.20303683 </i>
    <i name="e_0_energy">    -12.20313107 </i>
   </energy>
  </scstep>
  <scstep>
   <time name="dav">    3.25    3.27</time>
   <time name="total">    3.38    3.40</time>
   <energy>
    <i name="e_fr_energy">    -12.22331036 </i>
    <i name="e_wo_entrp">    -12.22317039 </i>
    <i name="e_0_energy">    -12.22326370 </i>
   </energy>
  </scstep>
  <scstep>
   <time name="dav">    3.33    3.34</time>
   <time name="total">    3.48    3.50</time>
   <energy>
    <i name="e_fr_energy">     -7.78752909 </i>
    <i name="e_wo_entrp">     -7.78774518 </i>
    <i name="e_0_energy">     -7.78760112 </i>
   </energy>
  </scstep>
  <scstep>
   <time name="dav">    4.00    4.02</time>
   <time name="total">    4.15    4.17</time>
   <energy>
    <i name="e_fr_energy">     -7.43404051 </i>
    <i name="e_wo_entrp">     -7.43424001 </i>
    <i name="e_0_energy">     -7.43410701 </i>
   </energy>
  </scstep>
  <scstep>
   <time name="dav">    3.06    3.08</time>
   <time name="total">    3.21    3.23</time>
   <energy>
    <i name="e_fr_energy">     -7.32910511 </i>
    <i name="e_wo_entrp">     -7.32930519 </i>
    <i name="e_0_energy">     -7.32917180 </i>
   </energy>
  </scstep>
  <scstep>
   <time name="dav">    3.01    3.03</time>
   <time name="total">    3.16    3.17</time>
   <energy>
    <i name="e_fr_energy">     -7.33948865 </i>
    <i name="e_wo_entrp">     -7.33957148 </i>
    <i name="e_0_energy">     -7.33951626 </i>
   </energy>
  </scstep>
  <scstep>
   <time name="dav">    3.06    3.07</time>
   <time name="total">    3.20    3.22</time>
   <energy>
    <i name="e_fr_energy">     -7.33805609 </i>
    <i name="e_wo_entrp">     -7.33818490 </i>
    <i name="e_0_energy">     -7.33809902 </i>
   </energy>
  </scstep>
  <scstep>
   <time name="dav">    3.32    3.34</time>
   <time name="total">    3.47    3.49</time>
   <energy>
    <i name="e_fr_energy">     -7.33807818 </i>
    <i name="e_wo_entrp">     -7.33821808 </i>
    <i name="e_0_energy">     -7.33812482 </i>
   </energy>
  </scstep>
  <scstep>
   <time name="dav">    2.62    2.63</time>
   <time name="total">    2.63    2.65</time>
   <energy>
    <i name="alphaZ">    424.99805480 </i>
    <i name="ewald">  -2604.42514785 </i>
    <i name="hartreedc">   -194.47758474 </i>
    <i name="XCdc">    171.82633821 </i>
    <i name="pawpsdc">  31011.43087407 </i>
    <i name="pawaedc"> -30984.38484663 </i>
    <i name="eentropy">      0.00013662 </i>
    <i name="bandstr">   -135.07328132 </i>
    <i name="atom">   2302.76737453 </i>
    <i name="e_fr_energy">     -7.33808230 </i>
    <i name="e_wo_entrp">     -7.33821892 </i>
    <i name="e_0_energy">     -7.33812784 </i>
   </energy>
  </scstep>
  <structure>
   <crystal>
    <varray name="basis" >
     <v>       2.96380000       0.00000000       0.00000000 </v>
     <v>       0.00000000       2.96380000       0.00000000 </v>
     <v>       0.00000000       0.00000000       4.18651000 </v>
    </varray>
    <i name="volume">     36.77476620 </i>
    <varray name="rec_basis" >
     <v>       0.33740468       0.00000000       0.00000000 </v>
     <v>       0.00000000       0.33740468       0.00000000 </v>
     <v>       0.00000000       0.00000000       0.23886244 </v>
    </varray>
   </crystal>
   <varray name="positions" >
    <v>       0.99999966       0.99999966       0.99999713 </v>
    <v>       0.49999966       0.49999966       0.49999857 </v>
    <v>       0.25639989       0.49999966       0.11579980 </v>
    <v>       0.74359977       0.49999966       0.11579980 </v>
    <v>       0.49999966       0.25639989       0.11579980 </v>
    <v>       0.49999966       0.74359977       0.11579980 </v>
    <v>       0.74359977       0.49999966       0.88419758 </v>
    <v>       0.25639989       0.49999966       0.88419758 </v>
    <v>       0.49999966       0.25639989       0.88419758 </v>
    <v>       0.49999966       0.74359977       0.88419758 </v>
    <v>       0.99999966       0.49999966       0.75829796 </v>
    <v>       0.49999966       0.99999966       0.75829796 </v>
    <v>       0.99999966       0.49999966       0.24169941 </v>
    <v>       0.49999966       0.99999966       0.24169941 </v>
    <v>       0.23730009       0.99999966       0.37319892 </v>
    <v>       0.76269991       0.99999966       0.37319892 </v>
    <v>       0.99999966       0.23730009       0.37319892 </v>
    <v>       0.99999966       0.76269991       0.37319892 </v>
    <v>       0.76269991       0.99999966       0.62679822 </v>
    <v>       0.23730009       0.99999966       0.62679822 </v>
    <v>       0.99999966       0.23730009       0.62679822 </v>
    <v>       0.99999966       0.76269991       0.62679822 </v>
   </varray>
  </structure>
  <varray name="forces" >
   <v>       0.00000000       0.00000000       0.00000000 </v>
   <v>       0.00000000      -0.00000000       0.00000000 </v>
   <v>      -0.04239564      -0.00000000      -0.03225285 </v>
   <v>       0.04239564      -0.00000000      -0.03225285 </v>
   <v>       0.00000000      -0.04239564      -0.03225285 </v>
   <v>       0.00000000       0.04239564      -0.03225285 </v>
   <v>       0.04239564       0.00000000       0.03225285 </v>
   <v>      -0.04239564      -0.00000000       0.03225285 </v>
   <v>       0.00000000      -0.04239564       0.03225285 </v>
   <v>       0.00000000       0.04239564       0.03225285 </v>
   <v>       0.00000000      -0.00000000       0.01017083 </v>
   <v>       0.00000000       0.00000000       0.01017083 </v>
   <v>       0.00000000       0.00000000      -0.01017083 </v>
   <v>       0.00000000      -0.00000000      -0.01017083 </v>
   <v>       0.03684357       0.00000000       0.04370285 </v>
   <v>      -0.03684357      -0.00000000       0.04370285 </v>
   <v>       0.00000000       0.03684357       0.04370285 </v>
   <v>       0.00000000      -0.03684357       0.04370285 </v>
   <v>      -0.03684357       0.00000000      -0.04370285 </v>
   <v>       0.03684357       0.00000000      -0.04370285 </v>
   <v>       0.00000000       0.03684357      -0.04370285 </v>
   <v>       0.00000000      -0.03684357      -0.04370285 </v>
  </varray>
  <varray name="stress" >
   <v>    6001.53423220       0.00000000       0.00000000 </v>
   <v>       0.00000000    6001.53423220       0.00000000 </v>
   <v>       0.00000000       0.00000000    6025.38043173 </v>
  </varray>
  <energy>
   <i name="e_fr_energy">     -7.33808230 </i>
   <i name="e_wo_entrp">     -7.33821892 </i>
   <i name="e_0_energy">     -7.33812784 </i>
  </energy>
  <time name="totalsc">   40.35   40.58</time>
  <eigenvalues>
   <array>
    <dimension dim="1">band</dimension>
    <dimension dim="2">kpoint</dimension>
    <dimension dim="3">spin</dimension>
    <field>eigene</field>
    <field>occ</field>
    <set>
     <set comment="spin 1">
      <set comment="kpoint 1">
       <r>  -29.6112    1.0000 </r>
       <r>  -26.8523    1.0000 </r>
       <r>  -14.4669    1.0000 </r>
       <r>   -9.9999    1.0000 </r>
       <r>   -9.9999    1.0000 </r>
       <r>   -9.2467    1.0000 </r>
       <r>   -7.7867    1.0000 </r>
       <r>   -7.7115    1.0000 </r>
       <r>   -7.7115    1.0000 </r>
       <r>   -7.3747    1.0000 </r>
       <r>   -2.8511    1.0000 </r>
       <r>    3.7790    1.0000 </r>
       <r>    4.3085    1.0000 </r>
       <r>    7.2549    1.0000 </r>
       <r>    7.2549    1.0000 </r>
       <r>    7.3736    1.0000 </r>
       <r>    8.4779    1.0000 </r>
       <r>    8.4779    1.0000 </r>
       <r>    8.8538    1.0000 </r>
       <r>    9.2539    1.0000 </r>
       <r>    9.2539    1.0000 </r>
       <r>   13.2762    1.0000 </r>
       <r>   14.9797   -0.0062 </r>
       <r>   14.9923   -0.0039 </r>
       <r>   18.8219    0.0000 </r>
       <r>   18.9581    0.0000 </r>
       <r>   18.9581    0.0000 </r>
       <r>   23.7559    0.0000 </r>
       <r>   23.9091    0.0000 </r>
       <r>   24.2709    0.0000 </r>
       <r>   24.2709    0.0000 </r>
       <r>   24.9509    0.0000 </r>
      </set>
      <set comment="kpoint 2">
       <r>  -29.5856    1.0000 </r>
       <r>  -26.8472    1.0000 </r>
       <r>  -14.4195    1.0000 </r>
       <r>  -10.4098    1.0000 </r>
       <r>   -9.9696    1.0000 </r>
       <r>   -9.6708    1.0000 </r>
       <r>   -7.8305    1.0000 </r>
       <r>   -7.7075    1.0000 </r>
       <r>   -7.2802    1.0000 </r>
       <r>   -7.0405    1.0000 </r>
       <r>   -2.6449    1.0000 </r>
       <r>    3.3562    1.0000 </r>
       <r>    4.2224    1.0000 </r>
       <r>    7.0690    1.0000 </r>
       <r>    7.3099    1.0000 </r>
       <r>    7.5494    1.0000 </r>
       <r>    8.2704    1.0000 </r>
       <r>    8.5002    1.0000 </r>
       <r>    8.9486    1.0000 </r>
       <r>    9.0182    1.0000 </r>
       <r>    9.2320    1.0000 </r>
       <r>   13.7619    1.0000 </r>
       <r>   15.1985   -0.0000 </r>
       <r>   15.4542   -0.0000 </r>
       <r>   18.6985    0.0000 </r>
       <r>   18.7898    0.0000 </r>
       <r>   19.0736    0.0000 </r>
       <r>   23.0441    0.0000 </r>
       <r>   23.9892    0.0000 </r>
       <r>   24.2744    0.0000 </r>
       <r>   24.8373    0.0000 </r>
       <r>   25.3448    0.0000 </r>
      </set>
      <set comment="kpoint 3">
       <r>  -29.5106    1.0000 </r>
       <r>  -26.8335    1.0000 </r>
       <r>  -14.2781    1.0000 </r>
       <r>  -11.2519    1.0000 </r>
       <r>  -10.4362    1.0000 </r>
       <r>   -9.8799    1.0000 </r>
       <r>   -7.9672    1.0000 </r>
       <r>   -7.6979    1.0000 </r>
       <r>   -6.5727    1.0000 </r>
       <r>   -6.3214    1.0000 </r>
       <r>   -2.0645    1.0000 </r>
       <r>    2.5090    1.0000 </r>
       <r>    3.9978    1.0000 </r>
       <r>    6.1271    1.0000 </r>
       <r>    7.4747    1.0000 </r>
       <r>    7.6878    1.0000 </r>
       <r>    7.9522    1.0000 </r>
       <r>    8.2837    1.0000 </r>
       <r>    8.5026    1.0000 </r>
       <r>    8.8891    1.0000 </r>
       <r>   10.4054    1.0000 </r>
       <r>   14.4989    1.0004 </r>
       <r>   16.0909   -0.0000 </r>
       <r>   16.6376   -0.0000 </r>
       <r>   17.9982    0.0000 </r>
       <r>   18.2597    0.0000 </r>
       <r>   19.7770    0.0000 </r>
       <r>   22.3880    0.0000 </r>
       <r>   24.3224    0.0000 </r>
       <r>   24.4139    0.0000 </r>
       <r>   24.5956    0.0000 </r>
       <r>   26.1860    0.0000 </r>
      </set>
      <set comment="kpoint 4">
       <r>  -29.3922    1.0000 </r>
       <r>  -26.8159    1.0000 </r>
       <r>  -14.0446    1.0000 </r>
       <r>  -12.1571    1.0000 </r>
       <r>  -11.2338    1.0000 </r>
       <r>   -9.7356    1.0000 </r>
       <r>   -8.2088    1.0000 </r>
       <r>   -7.6894    1.0000 </r>
       <r>   -5.9184    1.0000 </r>
       <r>   -5.4802    1.0000 </r>
       <r>   -1.2464    1.0000 </r>
       <r>    1.6811    1.0000 </r>
       <r>    3.6552    1.0000 </r>
       <r>    4.8654    1.0000 </r>
       <r>    6.8878    1.0000 </r>
       <r>    7.5446    1.0000 </r>
       <r>    7.7490    1.0000 </r>
       <r>    8.1501    1.0000 </r>
       <r>    8.3023    1.0000 </r>
       <r>    9.4624    1.0000 </r>
       <r>   12.1040    1.0000 </r>
       <r>   14.9931   -0.0038 </r>
       <r>   17.0218    0.0000 </r>
       <r>   17.4002    0.0000 </r>
       <r>   17.6854    0.0000 </r>
       <r>   18.1919    0.0000 </r>
       <r>   20.8218    0.0000 </r>
       <r>   22.1444    0.0000 </r>
       <r>   23.7049    0.0000 </r>
       <r>   24.4599    0.0000 </r>
       <r>   24.8898    0.0000 </r>
       <r>   26.5597    0.0000 </r>
      </set>
      <set comment="kpoint 5">
       <r>  -29.2405    1.0000 </r>
       <r>  -26.8008    1.0000 </r>
       <r>  -13.7229    1.0000 </r>
       <r>  -12.9914    1.0000 </r>
       <r>  -11.9836    1.0000 </r>
       <r>   -9.5450    1.0000 </r>
       <r>   -8.5654    1.0000 </r>
       <r>   -7.6925    1.0000 </r>
       <r>   -5.2922    1.0000 </r>
       <r>   -4.6243    1.0000 </r>
       <r>   -0.4317    1.0000 </r>
       <r>    1.0323    1.0000 </r>
       <r>    3.2248    1.0000 </r>
       <r>    3.5406    1.0000 </r>
       <r>    6.0799    1.0000 </r>
       <r>    6.8067    1.0000 </r>
       <r>    7.9767    1.0000 </r>
       <r>    8.1321    1.0000 </r>
       <r>    8.6987    1.0000 </r>
       <r>   10.2793    1.0000 </r>
       <r>   14.0758    1.0000 </r>
       <r>   15.4894   -0.0000 </r>
       <r>   15.9166   -0.0000 </r>
       <r>   16.3546   -0.0000 </r>
       <r>   19.5186    0.0000 </r>
       <r>   19.9189    0.0000 </r>
       <r>   22.1088    0.0000 </r>
       <r>   22.2213    0.0000 </r>
       <r>   22.7794    0.0000 </r>
       <r>   24.5086    0.0000 </r>
       <r>   24.6932    0.0000 </r>
       <r>   26.8777    0.0000 </r>
      </set>
      <set comment="kpoint 6">
       <r>  -29.0710    1.0000 </r>
       <r>  -26.7944    1.0000 </r>
       <r>  -13.6960    1.0000 </r>
       <r>  -13.3191    1.0000 </r>
       <r>  -12.6430    1.0000 </r>
       <r>   -9.3208    1.0000 </r>
       <r>   -9.0338    1.0000 </r>
       <r>   -7.7185    1.0000 </r>
       <r>   -4.6446    1.0000 </r>
       <r>   -3.7781    1.0000 </r>
       <r>    0.0920    1.0000 </r>
       <r>    0.6097    1.0000 </r>
       <r>    2.2557    1.0000 </r>
       <r>    2.7469    1.0000 </r>
       <r>    5.3863    1.0000 </r>
       <r>    6.1151    1.0000 </r>
       <r>    8.2280    1.0000 </r>
       <r>    8.6228    1.0000 </r>
       <r>    9.1799    1.0000 </r>
       <r>   11.2097    1.0000 </r>
       <r>   14.7784    0.4469 </r>
       <r>   15.2456   -0.0000 </r>
       <r>   16.0968   -0.0000 </r>
       <r>   16.2251   -0.0000 </r>
       <r>   21.1157    0.0000 </r>
       <r>   21.6780    0.0000 </r>
       <r>   21.8924    0.0000 </r>
       <r>   22.5163    0.0000 </r>
       <r>   23.5798    0.0000 </r>
       <r>   23.7696    0.0000 </r>
       <r>   25.0066    0.0000 </r>
       <r>   25.2731    0.0000 </r>
      </set>
      <set comment="kpoint 7">
       <r>  -28.9050    1.0000 </r>
       <r>  -26.7998    1.0000 </r>
       <r>  -14.2395    1.0000 </r>
       <r>  -13.1778    1.0000 </r>
       <r>  -12.8444    1.0000 </r>
       <r>   -9.5900    1.0000 </r>
       <r>   -9.0824    1.0000 </r>
       <r>   -7.7756    1.0000 </r>
       <r>   -3.9416    1.0000 </r>
       <r>   -2.9468    1.0000 </r>
       <r>    0.1238    1.0000 </r>
       <r>    0.4063    1.0000 </r>
       <r>    1.0770    1.0000 </r>
       <r>    2.2680    1.0000 </r>
       <r>    4.8635    1.0000 </r>
       <r>    5.5189    1.0000 </r>
       <r>    9.0220    1.0000 </r>
       <r>    9.2194    1.0000 </r>
       <r>    9.7550    1.0000 </r>
       <r>   12.0921    1.0000 </r>
       <r>   13.6636    1.0000 </r>
       <r>   14.1665    1.0000 </r>
       <r>   16.8635    0.0000 </r>
       <r>   18.4779    0.0000 </r>
       <r>   20.7028    0.0000 </r>
       <r>   21.4873    0.0000 </r>
       <r>   22.9712    0.0000 </r>
       <r>   23.1521    0.0000 </r>
       <r>   23.3176    0.0000 </r>
       <r>   24.7876    0.0000 </r>
       <r>   25.1991    0.0000 </r>
       <r>   25.3725    0.0000 </r>
      </set>
      <set comment="kpoint 8">
       <r>  -28.7690    1.0000 </r>
       <r>  -26.8132    1.0000 </r>
       <r>  -14.6055    1.0000 </r>
       <r>  -13.5571    1.0000 </r>
       <r>  -12.3224    1.0000 </r>
       <r>  -10.1866    1.0000 </r>
       <r>   -8.8602    1.0000 </r>
       <r>   -7.8594    1.0000 </r>
       <r>   -3.1650    1.0000 </r>
       <r>   -2.1382    1.0000 </r>
       <r>   -0.4166    1.0000 </r>
       <r>    0.1544    1.0000 </r>
       <r>    0.3755    1.0000 </r>
       <r>    1.8461    1.0000 </r>
       <r>    4.5334    1.0000 </r>
       <r>    5.0661    1.0000 </r>
       <r>    9.9192    1.0000 </r>
       <r>   10.2226    1.0000 </r>
       <r>   10.4179    1.0000 </r>
       <r>   12.6054    1.0000 </r>
       <r>   12.6552    1.0000 </r>
       <r>   13.1506    1.0000 </r>
       <r>   17.8234    0.0000 </r>
       <r>   19.8691    0.0000 </r>
       <r>   20.2932    0.0000 </r>
       <r>   20.7828    0.0000 </r>
       <r>   21.8974    0.0000 </r>
       <r>   23.5571    0.0000 </r>
       <r>   24.6707    0.0000 </r>
       <r>   25.7389    0.0000 </r>
       <r>   26.0384    0.0000 </r>
       <r>   26.3284    0.0000 </r>
      </set>
      <set comment="kpoint 9">
       <r>  -28.6912    1.0000 </r>
       <r>  -26.8247    1.0000 </r>
       <r>  -14.7887    1.0000 </r>
       <r>  -13.7549    1.0000 </r>
       <r>  -11.8419    1.0000 </r>
       <r>  -10.7112    1.0000 </r>
       <r>   -8.7096    1.0000 </r>
       <r>   -7.9351    1.0000 </r>
       <r>   -2.3158    1.0000 </r>
       <r>   -1.4820    1.0000 </r>
       <r>   -1.2263    1.0000 </r>
       <r>   -0.5280    1.0000 </r>
       <r>    0.4249    1.0000 </r>
       <r>    1.5720    1.0000 </r>
       <r>    4.3865    1.0000 </r>
       <r>    4.8108    1.0000 </r>
       <r>   10.7152    1.0000 </r>
       <r>   11.1109    1.0000 </r>
       <r>   11.4708    1.0000 </r>
       <r>   11.6266    1.0000 </r>
       <r>   12.2773    1.0000 </r>
       <r>   12.5614    1.0000 </r>
       <r>   18.8844    0.0000 </r>
       <r>   19.3296    0.0000 </r>
       <r>   19.5921    0.0000 </r>
       <r>   20.5056    0.0000 </r>
       <r>   22.9074    0.0000 </r>
       <r>   24.2974    0.0000 </r>
       <r>   25.2416    0.0000 </r>
       <r>   25.5090    0.0000 </r>
       <r>   25.8521    0.0000 </r>
       <r>   25.9976    0.0000 </r>
      </set>
      <set comment="kpoint 10">
       <r>  -29.5602    1.0000 </r>
       <r>  -26.8419    1.0000 </r>
       <r>  -14.3723    1.0000 </r>
       <r>  -10.4733    1.0000 </r>
       <r>  -10.2841    1.0000 </r>
       <r>   -9.9297    1.0000 </r>
       <r>   -7.8718    1.0000 </r>
       <r>   -7.7986    1.0000 </r>
       <r>   -6.9099    1.0000 </r>
       <r>   -6.7043    1.0000 </r>
       <r>   -2.4542    1.0000 </r>
       <r>    3.0262    1.0000 </r>
       <r>    4.1178    1.0000 </r>
       <r>    7.0441    1.0000 </r>
       <r>    7.0501    1.0000 </r>
       <r>    7.2929    1.0000 </r>
       <r>    8.2274    1.0000 </r>
       <r>    8.2332    1.0000 </r>
       <r>    8.9378    1.0000 </r>
       <r>    9.4629    1.0000 </r>
       <r>    9.6556    1.0000 </r>
       <r>   13.8554    1.0000 </r>
       <r>   15.0791   -0.0001 </r>
       <r>   16.2983   -0.0000 </r>
       <r>   18.0778    0.0000 </r>
       <r>   19.0452    0.0000 </r>
       <r>   19.2705    0.0000 </r>
       <r>   22.9263    0.0000 </r>
       <r>   23.9544    0.0000 </r>
       <r>   24.2456    0.0000 </r>
       <r>   24.7444    0.0000 </r>
       <r>   25.9261    0.0000 </r>
      </set>
      <set comment="kpoint 11">
       <r>  -29.4858    1.0000 </r>
       <r>  -26.8277    1.0000 </r>
       <r>  -14.2312    1.0000 </r>
       <r>  -11.2354    1.0000 </r>
       <r>  -10.5914    1.0000 </r>
       <r>  -10.2157    1.0000 </r>
       <r>   -8.0011    1.0000 </r>
       <r>   -7.8442    1.0000 </r>
       <r>   -6.2675    1.0000 </r>
       <r>   -6.0024    1.0000 </r>
       <r>   -1.9092    1.0000 </r>
       <r>    2.2850    1.0000 </r>
       <r>    3.8756    1.0000 </r>
       <r>    5.8884    1.0000 </r>
       <r>    7.0312    1.0000 </r>
       <r>    7.0414    1.0000 </r>
       <r>    7.4766    1.0000 </r>
       <r>    8.8618    1.0000 </r>
       <r>    9.0742    1.0000 </r>
       <r>    9.8685    1.0000 </r>
       <r>   10.4774    1.0000 </r>
       <r>   14.4368    1.0000 </r>
       <r>   15.4656   -0.0000 </r>
       <r>   17.1590    0.0000 </r>
       <r>   17.7421    0.0000 </r>
       <r>   18.9033    0.0000 </r>
       <r>   19.8492    0.0000 </r>
       <r>   22.4829    0.0000 </r>
       <r>   23.9334    0.0000 </r>
       <r>   24.4014    0.0000 </r>
       <r>   24.8710    0.0000 </r>
       <r>   25.9926    0.0000 </r>
      </set>
      <set comment="kpoint 12">
       <r>  -29.3682    1.0000 </r>
       <r>  -26.8092    1.0000 </r>
       <r>  -13.9983    1.0000 </r>
       <r>  -12.1303    1.0000 </r>
       <r>  -11.3073    1.0000 </r>
       <r>  -10.0727    1.0000 </r>
       <r>   -8.2313    1.0000 </r>
       <r>   -7.8488    1.0000 </r>
       <r>   -5.6169    1.0000 </r>
       <r>   -5.2213    1.0000 </r>
       <r>   -1.1267    1.0000 </r>
       <r>    1.5082    1.0000 </r>
       <r>    3.5279    1.0000 </r>
       <r>    4.5245    1.0000 </r>
       <r>    6.7186    1.0000 </r>
       <r>    6.7450    1.0000 </r>
       <r>    7.2234    1.0000 </r>
       <r>    8.9174    1.0000 </r>
       <r>    9.2556    1.0000 </r>
       <r>   10.1127    1.0000 </r>
       <r>   12.1590    1.0000 </r>
       <r>   15.0301   -0.0008 </r>
       <r>   16.0986   -0.0000 </r>
       <r>   16.6738   -0.0000 </r>
       <r>   18.3093    0.0000 </r>
       <r>   19.4153    0.0000 </r>
       <r>   20.7670    0.0000 </r>
       <r>   22.1251    0.0000 </r>
       <r>   23.7258    0.0000 </r>
       <r>   24.2295    0.0000 </r>
       <r>   25.0283    0.0000 </r>
       <r>   26.5581    0.0000 </r>
      </set>
      <set comment="kpoint 13">
       <r>  -29.2179    1.0000 </r>
       <r>  -26.7927    1.0000 </r>
       <r>  -13.6774    1.0000 </r>
       <r>  -12.9620    1.0000 </r>
       <r>  -12.0188    1.0000 </r>
       <r>   -9.8629    1.0000 </r>
       <r>   -8.5744    1.0000 </r>
       <r>   -7.8510    1.0000 </r>
       <r>   -4.9979    1.0000 </r>
       <r>   -4.4317    1.0000 </r>
       <r>   -0.3427    1.0000 </r>
       <r>    0.8815    1.0000 </r>
       <r>    3.0940    1.0000 </r>
       <r>    3.2193    1.0000 </r>
       <r>    6.0862    1.0000 </r>
       <r>    6.2192    1.0000 </r>
       <r>    7.5424    1.0000 </r>
       <r>    8.7198    1.0000 </r>
       <r>    9.6724    1.0000 </r>
       <r>   10.7051    1.0000 </r>
       <r>   14.1302    1.0000 </r>
       <r>   14.9858   -0.0050 </r>
       <r>   15.5408   -0.0000 </r>
       <r>   17.3891    0.0000 </r>
       <r>   18.4006    0.0000 </r>
       <r>   21.1121    0.0000 </r>
       <r>   21.9634    0.0000 </r>
       <r>   22.0690    0.0000 </r>
       <r>   22.8343    0.0000 </r>
       <r>   24.6025    0.0000 </r>
       <r>   24.6313    0.0000 </r>
       <r>   26.8913    0.0000 </r>
      </set>
      <set comment="kpoint 14">
       <r>  -29.0500    1.0000 </r>
       <r>  -26.7847    1.0000 </r>
       <r>  -13.6671    1.0000 </r>
       <r>  -13.2749    1.0000 </r>
       <r>  -12.6560    1.0000 </r>
       <r>   -9.6119    1.0000 </r>
       <r>   -9.0292    1.0000 </r>
       <r>   -7.8740    1.0000 </r>
       <r>   -4.3792    1.0000 </r>
       <r>   -3.6517    1.0000 </r>
       <r>    0.1435    1.0000 </r>
       <r>    0.4698    1.0000 </r>
       <r>    2.0055    1.0000 </r>
       <r>    2.6100    1.0000 </r>
       <r>    5.5930    1.0000 </r>
       <r>    5.6768    1.0000 </r>
       <r>    7.9806    1.0000 </r>
       <r>    8.8141    1.0000 </r>
       <r>   10.1729    1.0000 </r>
       <r>   11.5155    1.0000 </r>
       <r>   13.8755    1.0000 </r>
       <r>   16.1442   -0.0000 </r>
       <r>   16.2448   -0.0000 </r>
       <r>   16.3560   -0.0000 </r>
       <r>   20.2262    0.0000 </r>
       <r>   21.7789    0.0000 </r>
       <r>   22.2602    0.0000 </r>
       <r>   22.5987    0.0000 </r>
       <r>   23.0888    0.0000 </r>
       <r>   24.2727    0.0000 </r>
       <r>   25.0576    0.0000 </r>
       <r>   25.3468    0.0000 </r>
      </set>
      <set comment="kpoint 15">
       <r>  -28.8857    1.0000 </r>
       <r>  -26.7881    1.0000 </r>
       <r>  -14.2123    1.0000 </r>
       <r>  -13.1770    1.0000 </r>
       <r>  -12.8020    1.0000 </r>
       <r>   -9.5735    1.0000 </r>
       <r>   -9.3418    1.0000 </r>
       <r>   -7.9323    1.0000 </r>
       <r>   -3.7271    1.0000 </r>
       <r>   -2.8898    1.0000 </r>
       <r>    0.1376    1.0000 </r>
       <r>    0.2747    1.0000 </r>
       <r>    0.9171    1.0000 </r>
       <r>    2.1218    1.0000 </r>
       <r>    5.1421    1.0000 </r>
       <r>    5.3118    1.0000 </r>
       <r>    8.5283    1.0000 </r>
       <r>    9.4293    1.0000 </r>
       <r>   10.7643    1.0000 </r>
       <r>   12.3364    1.0000 </r>
       <r>   12.8147    1.0000 </r>
       <r>   15.2402   -0.0000 </r>
       <r>   16.9019    0.0000 </r>
       <r>   18.5300    0.0000 </r>
       <r>   20.7397    0.0000 </r>
       <r>   21.3738    0.0000 </r>
       <r>   22.6344    0.0000 </r>
       <r>   22.8515    0.0000 </r>
       <r>   23.0159    0.0000 </r>
       <r>   24.8704    0.0000 </r>
       <r>   25.3802    0.0000 </r>
       <r>   25.7724    0.0000 </r>
      </set>
      <set comment="kpoint 16">
       <r>  -28.7514    1.0000 </r>
       <r>  -26.7997    1.0000 </r>
       <r>  -14.5804    1.0000 </r>
       <r>  -13.5478    1.0000 </r>
       <r>  -12.2825    1.0000 </r>
       <r>  -10.1607    1.0000 </r>
       <r>   -9.0863    1.0000 </r>
       <r>   -8.0252    1.0000 </r>
       <r>   -3.0266    1.0000 </r>
       <r>   -2.1618    1.0000 </r>
       <r>   -0.3733    1.0000 </r>
       <r>    0.0657    1.0000 </r>
       <r>    0.2547    1.0000 </r>
       <r>    1.6868    1.0000 </r>
       <r>    4.8225    1.0000 </r>
       <r>    5.0407    1.0000 </r>
       <r>    9.1758    1.0000 </r>
       <r>   10.5155    1.0000 </r>
       <r>   11.3658    1.0000 </r>
       <r>   11.9089    1.0000 </r>
       <r>   12.8708    1.0000 </r>
       <r>   14.1960    1.0000 </r>
       <r>   17.8495    0.0000 </r>
       <r>   19.9181    0.0000 </r>
       <r>   20.3233    0.0000 </r>
       <r>   20.8311    0.0000 </r>
       <r>   21.8434    0.0000 </r>
       <r>   23.1602    0.0000 </r>
       <r>   24.2525    0.0000 </r>
       <r>   25.1682    0.0000 </r>
       <r>   26.0259    0.0000 </r>
       <r>   26.5088    0.0000 </r>
      </set>
      <set comment="kpoint 17">
       <r>  -28.6747    1.0000 </r>
       <r>  -26.8100    1.0000 </r>
       <r>  -14.7649    1.0000 </r>
       <r>  -13.7413    1.0000 </r>
       <r>  -11.8056    1.0000 </r>
       <r>  -10.6784    1.0000 </r>
       <r>   -8.9089    1.0000 </r>
       <r>   -8.1145    1.0000 </r>
       <r>   -2.3116    1.0000 </r>
       <r>   -1.6379    1.0000 </r>
       <r>   -0.9808    1.0000 </r>
       <r>   -0.5808    1.0000 </r>
       <r>    0.3166    1.0000 </r>
       <r>    1.3987    1.0000 </r>
       <r>    4.6747    1.0000 </r>
       <r>    4.8698    1.0000 </r>
       <r>    9.8898    1.0000 </r>
       <r>   10.8450    1.0000 </r>
       <r>   11.7208    1.0000 </r>
       <r>   12.3229    1.0000 </r>
       <r>   12.7595    1.0000 </r>
       <r>   13.2305    1.0000 </r>
       <r>   18.9028    0.0000 </r>
       <r>   19.3716    0.0000 </r>
       <r>   19.6286    0.0000 </r>
       <r>   20.4972    0.0000 </r>
       <r>   22.9295    0.0000 </r>
       <r>   23.8896    0.0000 </r>
       <r>   24.5528    0.0000 </r>
       <r>   25.2914    0.0000 </r>
       <r>   25.7097    0.0000 </r>
       <r>   26.8907    0.0000 </r>
      </set>
      <set comment="kpoint 18">
       <r>  -29.4130    1.0000 </r>
       <r>  -26.8119    1.0000 </r>
       <r>  -14.0911    1.0000 </r>
       <r>  -11.3639    1.0000 </r>
       <r>  -10.9741    1.0000 </r>
       <r>  -10.7937    1.0000 </r>
       <r>   -8.1086    1.0000 </r>
       <r>   -8.0374    1.0000 </r>
       <r>   -5.6725    1.0000 </r>
       <r>   -5.3201    1.0000 </r>
       <r>   -1.4506    1.0000 </r>
       <r>    1.7179    1.0000 </r>
       <r>    3.5892    1.0000 </r>
       <r>    4.9022    1.0000 </r>
       <r>    6.5597    1.0000 </r>
       <r>    6.7322    1.0000 </r>
       <r>    6.8300    1.0000 </r>
       <r>    9.5463    1.0000 </r>
       <r>   10.1932    1.0000 </r>
       <r>   10.8311    1.0000 </r>
       <r>   10.9452    1.0000 </r>
       <r>   14.4587    1.0000 </r>
       <r>   15.3439   -0.0000 </r>
       <r>   16.1201   -0.0000 </r>
       <r>   19.2962    0.0000 </r>
       <r>   19.3014    0.0000 </r>
       <r>   20.1401    0.0000 </r>
       <r>   22.7288    0.0000 </r>
       <r>   23.2244    0.0000 </r>
       <r>   24.2213    0.0000 </r>
       <r>   25.5037    0.0000 </r>
       <r>   25.7225    0.0000 </r>
      </set>
      <set comment="kpoint 19">
       <r>  -29.2983    1.0000 </r>
       <r>  -26.7906    1.0000 </r>
       <r>  -13.8599    1.0000 </r>
       <r>  -12.0867    1.0000 </r>
       <r>  -11.5146    1.0000 </r>
       <r>  -10.7960    1.0000 </r>
       <r>   -8.3053    1.0000 </r>
       <r>   -8.1423    1.0000 </r>
       <r>   -5.0453    1.0000 </r>
       <r>   -4.6003    1.0000 </r>
       <r>   -0.7596    1.0000 </r>
       <r>    1.0477    1.0000 </r>
       <r>    3.2087    1.0000 </r>
       <r>    3.6852    1.0000 </r>
       <r>    5.7232    1.0000 </r>
       <r>    6.6564    1.0000 </r>
       <r>    6.8747    1.0000 </r>
       <r>    9.7598    1.0000 </r>
       <r>   10.7810    1.0000 </r>
       <r>   11.4568    1.0000 </r>
       <r>   12.3239    1.0000 </r>
       <r>   15.0509   -0.0003 </r>
       <r>   15.0964   -0.0000 </r>
       <r>   15.8527   -0.0000 </r>
       <r>   19.2058    0.0000 </r>
       <r>   20.6165    0.0000 </r>
       <r>   21.1019    0.0000 </r>
       <r>   22.2148    0.0000 </r>
       <r>   23.5888    0.0000 </r>
       <r>   23.7357    0.0000 </r>
       <r>   25.0227    0.0000 </r>
       <r>   26.9209    0.0000 </r>
      </set>
      <set comment="kpoint 20">
       <r>  -29.1518    1.0000 </r>
       <r>  -26.7702    1.0000 </r>
       <r>  -13.5417    1.0000 </r>
       <r>  -12.8904    1.0000 </r>
       <r>  -12.1279    1.0000 </r>
       <r>  -10.5703    1.0000 </r>
       <r>   -8.6077    1.0000 </r>
       <r>   -8.1903    1.0000 </r>
       <r>   -4.4556    1.0000 </r>
       <r>   -3.9476    1.0000 </r>
       <r>   -0.0530    1.0000 </r>
       <r>    0.4698    1.0000 </r>
       <r>    2.5494    1.0000 </r>
       <r>    2.7507    1.0000 </r>
       <r>    5.1090    1.0000 </r>
       <r>    6.4666    1.0000 </r>
       <r>    7.0967    1.0000 </r>
       <r>    9.8029    1.0000 </r>
       <r>   11.1950    1.0000 </r>
       <r>   11.8247    1.0000 </r>
       <r>   13.9862    1.0000 </r>
       <r>   14.2967    1.0000 </r>
       <r>   15.6946   -0.0000 </r>
       <r>   17.2950    0.0000 </r>
       <r>   18.6330    0.0000 </r>
       <r>   21.4647    0.0000 </r>
       <r>   21.7773    0.0000 </r>
       <r>   22.6490    0.0000 </r>
       <r>   23.0717    0.0000 </r>
       <r>   24.3370    0.0000 </r>
       <r>   24.6126    0.0000 </r>
       <r>   26.7822    0.0000 </r>
      </set>
      <set comment="kpoint 21">
       <r>  -28.9887    1.0000 </r>
       <r>  -26.7571    1.0000 </r>
       <r>  -13.5906    1.0000 </r>
       <r>  -13.1431    1.0000 </r>
       <r>  -12.7026    1.0000 </r>
       <r>  -10.2772    1.0000 </r>
       <r>   -9.0209    1.0000 </r>
       <r>   -8.2321    1.0000 </r>
       <r>   -3.9135    1.0000 </r>
       <r>   -3.3679    1.0000 </r>
       <r>    0.0798    1.0000 </r>
       <r>    0.3447    1.0000 </r>
       <r>    1.5653    1.0000 </r>
       <r>    2.2421    1.0000 </r>
       <r>    4.8629    1.0000 </r>
       <r>    6.1384    1.0000 </r>
       <r>    7.4580    1.0000 </r>
       <r>    9.9259    1.0000 </r>
       <r>   11.6852    1.0000 </r>
[...]
       <r>   21.7940    0.0000 </r>
       <r>   21.8344    0.0000 </r>
       <r>   22.6520    0.0000 </r>
       <r>   24.6052    0.0000 </r>
       <r>   24.9728    0.0000 </r>
       <r>   25.1619    0.0000 </r>
       <r>   26.4705    0.0000 </r>
      </set>
      <set comment="kpoint 269">
       <r>  -28.1677    1.0000 </r>
       <r>  -26.3571    1.0000 </r>
       <r>  -13.7662    1.0000 </r>
       <r>  -13.3248    1.0000 </r>
       <r>  -12.9840    1.0000 </r>
       <r>  -11.9580    1.0000 </r>
       <r>  -10.9838    1.0000 </r>
       <r>  -10.7344    1.0000 </r>
       <r>   -3.3924    1.0000 </r>
       <r>   -3.0599    1.0000 </r>
       <r>    0.1905    1.0000 </r>
       <r>    0.7527    1.0000 </r>
       <r>    1.6120    1.0000 </r>
       <r>    2.2981    1.0000 </r>
       <r>    3.8379    1.0000 </r>
       <r>    4.8231    1.0000 </r>
       <r>   10.7321    1.0000 </r>
       <r>   10.9444    1.0000 </r>
       <r>   12.3376    1.0000 </r>
       <r>   12.6187    1.0000 </r>
       <r>   19.0648    0.0000 </r>
       <r>   19.6410    0.0000 </r>
       <r>   20.0481    0.0000 </r>
       <r>   20.7333    0.0000 </r>
       <r>   21.1609    0.0000 </r>
       <r>   22.2040    0.0000 </r>
       <r>   22.6625    0.0000 </r>
       <r>   22.9683    0.0000 </r>
       <r>   24.2993    0.0000 </r>
       <r>   24.5451    0.0000 </r>
       <r>   24.7389    0.0000 </r>
       <r>   25.5922    0.0000 </r>
      </set>
      <set comment="kpoint 270">
       <r>  -28.1318    1.0000 </r>
       <r>  -26.3258    1.0000 </r>
       <r>  -13.4191    1.0000 </r>
       <r>  -13.2975    1.0000 </r>
       <r>  -12.6248    1.0000 </r>
       <r>  -12.0843    1.0000 </r>
       <r>  -11.6293    1.0000 </r>
       <r>  -11.2287    1.0000 </r>
       <r>   -3.4350    1.0000 </r>
       <r>   -3.0851    1.0000 </r>
       <r>    0.5766    1.0000 </r>
       <r>    0.6584    1.0000 </r>
       <r>    2.0939    1.0000 </r>
       <r>    2.2587    1.0000 </r>
       <r>    3.4587    1.0000 </r>
       <r>    4.3850    1.0000 </r>
       <r>   11.0203    1.0000 </r>
       <r>   11.0945    1.0000 </r>
       <r>   12.7197    1.0000 </r>
       <r>   12.8112    1.0000 </r>
       <r>   19.7141    0.0000 </r>
       <r>   20.1184    0.0000 </r>
       <r>   20.8301    0.0000 </r>
       <r>   21.1404    0.0000 </r>
       <r>   21.7986    0.0000 </r>
       <r>   21.9203    0.0000 </r>
       <r>   22.4776    0.0000 </r>
       <r>   22.8005    0.0000 </r>
       <r>   23.8663    0.0000 </r>
       <r>   24.1141    0.0000 </r>
       <r>   24.5332    0.0000 </r>
       <r>   24.9098    0.0000 </r>
      </set>
     </set>
    </set>
   </array>
  </eigenvalues>
  <separator name="orbital magnetization" >
   <v name="MAGDIPOLOUT">      0.00000000      0.00000000      0.00000000</v>
  </separator>
  <dos>
   <i name="efermi">     14.77207931 </i>
   <total>
    <array>
     <dimension dim="1">gridpoints</dimension>
     <dimension dim="2">spin</dimension>
     <field>energy</field>
     <field>total</field>
     <field>integrated</field>
     <set>
      <set comment="spin 1">
       <r>   -32.4719     0.0000     0.0000 </r>
       <r>   -32.2621     0.0000     0.0000 </r>
       <r>   -32.0523     0.0000     0.0000 </r>
       <r>   -31.8425     0.0000     0.0000 </r>
       <r>   -31.6327     0.0000     0.0000 </r>
       <r>   -31.4230     0.0000     0.0000 </r>
       <r>   -31.2132     0.0000     0.0000 </r>
       <r>   -31.0034     0.0000     0.0000 </r>
       <r>   -30.7936     0.0000     0.0000 </r>
       <r>   -30.5838    -0.0000    -0.0000 </r>
       <r>   -30.3741    -0.0000    -0.0000 </r>
       <r>   -30.1643    -0.0000    -0.0000 </r>
       <r>   -29.9545    -0.0000    -0.0000 </r>
       <r>   -29.7447    -0.0013    -0.0003 </r>
       <r>   -29.5349     0.0715     0.0147 </r>
       <r>   -29.3252     0.5086     0.1214 </r>
       <r>   -29.1154     1.0240     0.3362 </r>
       <r>   -28.9056     1.3082     0.6107 </r>
       <r>   -28.6958     1.9060     1.0105 </r>
       <r>   -28.4860     2.4408     1.5226 </r>
       <r>   -28.2763     1.4899     1.8351 </r>
       <r>   -28.0665     0.8006     2.0030 </r>
       <r>   -27.8567    -0.0145     2.0000 </r>
       <r>   -27.6469    -0.0000     2.0000 </r>
       <r>   -27.4371    -0.0037     1.9992 </r>
       <r>   -27.2274     0.1730     2.0355 </r>
       <r>   -27.0176     0.7304     2.1887 </r>
       <r>   -26.8078     2.6338     2.7413 </r>
       <r>   -26.5980     3.9099     3.5615 </r>
       <r>   -26.3882     1.7494     3.9285 </r>
       <r>   -26.1785     0.3470     4.0013 </r>
       <r>   -25.9687    -0.0061     4.0000 </r>
       <r>   -25.7589    -0.0000     4.0000 </r>
       <r>   -25.5491    -0.0000     4.0000 </r>
       <r>   -25.3393     0.0000     4.0000 </r>
       <r>   -25.1296     0.0000     4.0000 </r>
       <r>   -24.9198     0.0000     4.0000 </r>
       <r>   -24.7100     0.0000     4.0000 </r>
       <r>   -24.5002     0.0000     4.0000 </r>
       <r>   -24.2904     0.0000     4.0000 </r>
       <r>   -24.0807     0.0000     4.0000 </r>
       <r>   -23.8709     0.0000     4.0000 </r>
       <r>   -23.6611     0.0000     4.0000 </r>
       <r>   -23.4513     0.0000     4.0000 </r>
       <r>   -23.2415     0.0000     4.0000 </r>
       <r>   -23.0318     0.0000     4.0000 </r>
       <r>   -22.8220     0.0000     4.0000 </r>
       <r>   -22.6122     0.0000     4.0000 </r>
       <r>   -22.4024     0.0000     4.0000 </r>
       <r>   -22.1926     0.0000     4.0000 </r>
       <r>   -21.9829     0.0000     4.0000 </r>
       <r>   -21.7731     0.0000     4.0000 </r>
       <r>   -21.5633     0.0000     4.0000 </r>
       <r>   -21.3535     0.0000     4.0000 </r>
       <r>   -21.1437     0.0000     4.0000 </r>
       <r>   -20.9340     0.0000     4.0000 </r>
       <r>   -20.7242     0.0000     4.0000 </r>
       <r>   -20.5144     0.0000     4.0000 </r>
       <r>   -20.3046     0.0000     4.0000 </r>
       <r>   -20.0948     0.0000     4.0000 </r>
       <r>   -19.8851     0.0000     4.0000 </r>
       <r>   -19.6753     0.0000     4.0000 </r>
       <r>   -19.4655     0.0000     4.0000 </r>
       <r>   -19.2557     0.0000     4.0000 </r>
       <r>   -19.0459     0.0000     4.0000 </r>
       <r>   -18.8362     0.0000     4.0000 </r>
       <r>   -18.6264     0.0000     4.0000 </r>
       <r>   -18.4166     0.0000     4.0000 </r>
       <r>   -18.2068     0.0000     4.0000 </r>
       <r>   -17.9970     0.0000     4.0000 </r>
       <r>   -17.7873     0.0000     4.0000 </r>
       <r>   -17.5775     0.0000     4.0000 </r>
       <r>   -17.3677     0.0000     4.0000 </r>
       <r>   -17.1579     0.0000     4.0000 </r>
       <r>   -16.9481     0.0000     4.0000 </r>
       <r>   -16.7384    -0.0000     4.0000 </r>
       <r>   -16.5286    -0.0000     4.0000 </r>
       <r>   -16.3188    -0.0000     4.0000 </r>
       <r>   -16.1090    -0.0003     3.9999 </r>
       <r>   -15.8992     0.0230     4.0048 </r>
       <r>   -15.6895     0.1830     4.0432 </r>
       <r>   -15.4797     0.3521     4.1170 </r>
       <r>   -15.2699     0.6552     4.2545 </r>
       <r>   -15.0601     0.8268     4.4279 </r>
       <r>   -14.8503     1.1089     4.6605 </r>
       <r>   -14.6406     1.4640     4.9676 </r>
       <r>   -14.4308     1.9009     5.3664 </r>
       <r>   -14.2210     3.2957     6.0578 </r>
       <r>   -14.0112     2.3820     6.5575 </r>
       <r>   -13.8014     2.1496     7.0084 </r>
       <r>   -13.5917     1.2569     7.2721 </r>
       <r>   -13.3819     0.9572     7.4729 </r>
       <r>   -13.1721     0.6961     7.6189 </r>
       <r>   -12.9623     0.5174     7.7274 </r>
       <r>   -12.7525     0.7698     7.8889 </r>
       <r>   -12.5428     0.6578     8.0269 </r>
       <r>   -12.3330     0.7628     8.1869 </r>
       <r>   -12.1232     0.9556     8.3874 </r>
       <r>   -11.9134     0.8947     8.5751 </r>
       <r>   -11.7036     0.8884     8.7615 </r>
       <r>   -11.4939     1.1174     8.9959 </r>
       <r>   -11.2841     1.0644     9.2192 </r>
       <r>   -11.0743     1.1337     9.4570 </r>
       <r>   -10.8645     0.9778     9.6621 </r>
       <r>   -10.6547     1.4050     9.9569 </r>
       <r>   -10.4450     1.3309    10.2360 </r>
       <r>   -10.2352     1.6615    10.5846 </r>
       <r>   -10.0254     1.6120    10.9227 </r>
       <r>    -9.8156     2.3743    11.4208 </r>
       <r>    -9.6058     1.9824    11.8367 </r>
       <r>    -9.3961     2.3416    12.3279 </r>
       <r>    -9.1863     2.3753    12.8262 </r>
       <r>    -8.9765     2.1573    13.2788 </r>
       <r>    -8.7667     2.3775    13.7775 </r>
       <r>    -8.5569     2.0728    14.2124 </r>
       <r>    -8.3472     2.2993    14.6947 </r>
       <r>    -8.1374     2.1062    15.1365 </r>
       <r>    -7.9276     2.4826    15.6574 </r>
       <r>    -7.7178     1.5617    15.9850 </r>
       <r>    -7.5080     0.0750    16.0007 </r>
       <r>    -7.2983     0.0240    16.0057 </r>
       <r>    -7.0885     0.0264    16.0113 </r>
       <r>    -6.8787     0.1038    16.0331 </r>
       <r>    -6.6689     0.1363    16.0616 </r>
       <r>    -6.4591     0.1477    16.0926 </r>
       <r>    -6.2494     0.0941    16.1124 </r>
       <r>    -6.0396     0.2609    16.1671 </r>
       <r>    -5.8298     0.3654    16.2437 </r>
       <r>    -5.6200     0.2279    16.2915 </r>
       <r>    -5.4102     0.3614    16.3674 </r>
       <r>    -5.2005     0.3944    16.4501 </r>
       <r>    -4.9907     0.5413    16.5636 </r>
       <r>    -4.7809     0.6380    16.6975 </r>
       <r>    -4.5711     0.7240    16.8494 </r>
       <r>    -4.3613     0.7493    17.0066 </r>
       <r>    -4.1516     1.2428    17.2673 </r>
       <r>    -3.9418     1.0521    17.4880 </r>
       <r>    -3.7320     1.5074    17.8042 </r>
       <r>    -3.5222     1.4565    18.1097 </r>
       <r>    -3.3124     1.7057    18.4676 </r>
       <r>    -3.1027     1.7071    18.8257 </r>
       <r>    -2.8929     1.6022    19.1618 </r>
       <r>    -2.6831     1.4046    19.4564 </r>
       <r>    -2.4733     0.8867    19.6424 </r>
       <r>    -2.2635     1.0746    19.8679 </r>
       <r>    -2.0538     0.7283    20.0206 </r>
       <r>    -1.8440     0.5355    20.1330 </r>
       <r>    -1.6342     0.7655    20.2936 </r>
       <r>    -1.4244     1.1042    20.5252 </r>
       <r>    -1.2146     1.1754    20.7718 </r>
       <r>    -1.0049     1.4315    21.0721 </r>
       <r>    -0.7951     2.0692    21.5062 </r>
       <r>    -0.5853     1.7557    21.8745 </r>
       <r>    -0.3755     1.7195    22.2352 </r>
       <r>    -0.1657     1.2551    22.4985 </r>
       <r>     0.0440     2.0994    22.9389 </r>
       <r>     0.2538     1.3807    23.2285 </r>
       <r>     0.4636     1.1687    23.4737 </r>
       <r>     0.6734     1.5334    23.7954 </r>
       <r>     0.8832     1.1735    24.0416 </r>
       <r>     1.0929     1.2176    24.2970 </r>
       <r>     1.3027     1.2389    24.5569 </r>
       <r>     1.5125     1.3497    24.8400 </r>
       <r>     1.7223     1.5560    25.1664 </r>
       <r>     1.9321     1.6142    25.5050 </r>
       <r>     2.1418     1.6387    25.8488 </r>
       <r>     2.3516     1.7835    26.2230 </r>
       <r>     2.5614     1.5999    26.5586 </r>
       <r>     2.7712     1.8089    26.9380 </r>
       <r>     2.9810     1.1132    27.1716 </r>
       <r>     3.1907     1.0095    27.3834 </r>
       <r>     3.4005     0.8426    27.5601 </r>
       <r>     3.6103     0.9147    27.7520 </r>
       <r>     3.8201     0.7899    27.9177 </r>
       <r>     4.0299     0.9559    28.1182 </r>
       <r>     4.2396     0.8910    28.3051 </r>
       <r>     4.4494     1.3957    28.5979 </r>
       <r>     4.6592     1.3723    28.8858 </r>
       <r>     4.8690     1.9503    29.2949 </r>
       <r>     5.0788     1.9596    29.7060 </r>
       <r>     5.2885     1.3688    29.9931 </r>
       <r>     5.4983     1.6137    30.3317 </r>
       <r>     5.7081     1.2514    30.5942 </r>
       <r>     5.9179     1.1093    30.8269 </r>
       <r>     6.1277     1.3505    31.1102 </r>
       <r>     6.3374     0.7540    31.2684 </r>
       <r>     6.5472     1.0864    31.4963 </r>
       <r>     6.7570     1.0982    31.7266 </r>
       <r>     6.9668     1.1884    31.9759 </r>
       <r>     7.1766     1.2145    32.2307 </r>
       <r>     7.3863     1.0901    32.4594 </r>
       <r>     7.5961     1.3959    32.7522 </r>
       <r>     7.8059     1.0653    32.9757 </r>
       <r>     8.0157     1.0887    33.2041 </r>
       <r>     8.2255     1.3196    33.4809 </r>
       <r>     8.4352     1.8602    33.8712 </r>
       <r>     8.6450     1.1982    34.1225 </r>
       <r>     8.8548     1.3446    34.4046 </r>
       <r>     9.0646     1.3157    34.6806 </r>
       <r>     9.2744     1.0773    34.9066 </r>
       <r>     9.4841     1.2768    35.1745 </r>
       <r>     9.6939     1.1181    35.4090 </r>
       <r>     9.9037     1.3968    35.7020 </r>
       <r>    10.1135     0.8042    35.8707 </r>
       <r>    10.3233     1.0392    36.0887 </r>
       <r>    10.5330     1.1520    36.3304 </r>
       <r>    10.7428     0.8475    36.5082 </r>
       <r>    10.9526     0.8257    36.6814 </r>
       <r>    11.1624     0.8424    36.8581 </r>
       <r>    11.3722     0.8255    37.0313 </r>
       <r>    11.5819     1.0861    37.2591 </r>
       <r>    11.7917     0.9603    37.4606 </r>
       <r>    12.0015     1.2566    37.7242 </r>
       <r>    12.2113     1.7440    38.0901 </r>
       <r>    12.4211     1.4713    38.3987 </r>
       <r>    12.6308     0.9984    38.6082 </r>
       <r>    12.8406     1.4920    38.9211 </r>
       <r>    13.0504     1.4350    39.2222 </r>
       <r>    13.2602     0.8895    39.4088 </r>
       <r>    13.4700     0.9987    39.6183 </r>
       <r>    13.6797     0.9910    39.8262 </r>
       <r>    13.8895     1.4261    40.1253 </r>
       <r>    14.0993     1.0984    40.3558 </r>
       <r>    14.3091     1.0940    40.5853 </r>
       <r>    14.5189     1.0199    40.7992 </r>
       <r>    14.7286     0.7904    40.9650 </r>
       <r>    14.9384     0.8498    41.1433 </r>
       <r>    15.1482     1.2394    41.4033 </r>
       <r>    15.3580     1.0735    41.6285 </r>
       <r>    15.5678     1.2033    41.8809 </r>
       <r>    15.7775     1.2696    42.1473 </r>
       <r>    15.9873     1.3262    42.4255 </r>
       <r>    16.1971     1.1343    42.6634 </r>
       <r>    16.4069     1.2799    42.9319 </r>
       <r>    16.6167     1.0593    43.1541 </r>
       <r>    16.8264     1.1689    43.3993 </r>
       <r>    17.0362     1.1377    43.6380 </r>
       <r>    17.2460     1.2553    43.9013 </r>
       <r>    17.4558     1.6000    44.2370 </r>
       <r>    17.6656     1.1778    44.4841 </r>
       <r>    17.8753     1.3485    44.7670 </r>
       <r>    18.0851     1.1881    45.0162 </r>
       <r>    18.2949     1.2960    45.2881 </r>
       <r>    18.5047     1.7334    45.6517 </r>
       <r>    18.7145     1.5705    45.9812 </r>
       <r>    18.9242     1.8533    46.3700 </r>
       <r>    19.1340     1.9112    46.7709 </r>
       <r>    19.3438     2.5962    47.3155 </r>
       <r>    19.5536     2.1117    47.7585 </r>
       <r>    19.7634     2.4817    48.2791 </r>
       <r>    19.9731     2.1837    48.7372 </r>
       <r>    20.1829     2.9448    49.3550 </r>
       <r>    20.3927     2.0701    49.7892 </r>
       <r>    20.6025     3.1404    50.4480 </r>
       <r>    20.8123     1.9886    50.8652 </r>
       <r>    21.0220     1.8834    51.2603 </r>
       <r>    21.2318     2.4668    51.7778 </r>
       <r>    21.4416     2.2705    52.2541 </r>
       <r>    21.6514     1.9484    52.6628 </r>
       <r>    21.8612     2.4874    53.1846 </r>
       <r>    22.0709     2.0925    53.6236 </r>
       <r>    22.2807     1.8742    54.0167 </r>
       <r>    22.4905     2.5998    54.5621 </r>
       <r>    22.7003     2.1354    55.0101 </r>
       <r>    22.9101     2.2872    55.4899 </r>
       <r>    23.1198     2.9804    56.1151 </r>
       <r>    23.3296     2.1400    56.5641 </r>
       <r>    23.5394     1.9710    56.9775 </r>
       <r>    23.7492     2.3867    57.4782 </r>
       <r>    23.9590     2.0421    57.9066 </r>
       <r>    24.1687     2.1640    58.3606 </r>
       <r>    24.3785     3.0273    58.9956 </r>
       <r>    24.5883     2.4769    59.5152 </r>
       <r>    24.7981     2.9109    60.1259 </r>
       <r>    25.0079     2.9566    60.7461 </r>
       <r>    25.2176     2.7965    61.3328 </r>
       <r>    25.4274     2.2842    61.8119 </r>
       <r>    25.6372     2.0362    62.2391 </r>
       <r>    25.8470     2.1871    62.6979 </r>
       <r>    26.0568     1.6584    63.0458 </r>
       <r>    26.2665     1.3612    63.3314 </r>
       <r>    26.4763     1.1260    63.5676 </r>
       <r>    26.6861     1.0507    63.7880 </r>
       <r>    26.8959     0.4542    63.8833 </r>
       <r>    27.1057     0.3885    63.9648 </r>
       <r>    27.3154     0.1223    63.9904 </r>
       <r>    27.5252     0.0224    63.9951 </r>
       <r>    27.7350     0.0240    64.0002 </r>
       <r>    27.9448    -0.0008    64.0000 </r>
       <r>    28.1546    -0.0000    64.0000 </r>
       <r>    28.3643    -0.0000    64.0000 </r>
       <r>    28.5741     0.0000    64.0000 </r>
       <r>    28.7839     0.0000    64.0000 </r>
       <r>    28.9937     0.0000    64.0000 </r>
       <r>    29.2035     0.0000    64.0000 </r>
       <r>    29.4132     0.0000    64.0000 </r>
       <r>    29.6230     0.0000    64.0000 </r>
       <r>    29.8328     0.0000    64.0000 </r>
       <r>    30.0426     0.0000    64.0000 </r>
       <r>    30.2524     0.0000    64.0000 </r>
       <r>    30.4621     0.0000    64.0000 </r>
      </set>
     </set>
    </array>
   </total>
  </dos>
 </calculation>
 <structure name="finalpos" >
  <crystal>
   <varray name="basis" >
    <v>       2.96380000       0.00000000       0.00000000 </v>
    <v>       0.00000000       2.96380000       0.00000000 </v>
    <v>       0.00000000       0.00000000       4.18651000 </v>
   </varray>
   <i name="volume">     36.77476620 </i>
   <varray name="rec_basis" >
    <v>       0.33740468       0.00000000       0.00000000 </v>
    <v>       0.00000000       0.33740468       0.00000000 </v>
    <v>       0.00000000       0.00000000       0.23886244 </v>
   </varray>
  </crystal>
  <varray name="positions" >
   <v>       0.99999966       0.99999966       0.99999713 </v>
   <v>       0.49999966       0.49999966       0.49999857 </v>
   <v>       0.25639989       0.49999966       0.11579980 </v>
   <v>       0.74359977       0.49999966       0.11579980 </v>
   <v>       0.49999966       0.25639989       0.11579980 </v>
   <v>       0.49999966       0.74359977       0.11579980 </v>
   <v>       0.74359977       0.49999966       0.88419758 </v>
   <v>       0.25639989       0.49999966       0.88419758 </v>
   <v>       0.49999966       0.25639989       0.88419758 </v>
   <v>       0.49999966       0.74359977       0.88419758 </v>
   <v>       0.99999966       0.49999966       0.75829796 </v>
   <v>       0.49999966       0.99999966       0.75829796 </v>
   <v>       0.99999966       0.49999966       0.24169941 </v>
   <v>       0.49999966       0.99999966       0.24169941 </v>
   <v>       0.23730009       0.99999966       0.37319892 </v>
   <v>       0.76269991       0.99999966       0.37319892 </v>
   <v>       0.99999966       0.23730009       0.37319892 </v>
   <v>       0.99999966       0.76269991       0.37319892 </v>
   <v>       0.76269991       0.99999966       0.62679822 </v>
   <v>       0.23730009       0.99999966       0.62679822 </v>
   <v>       0.99999966       0.23730009       0.62679822 </v>
   <v>       0.99999966       0.76269991       0.62679822 </v>
  </varray>
 </structure>
</modeling>
