sys                                     
           1
     2.963800    0.000000    0.000000
     0.000000    2.963800    0.000000
     0.000000    0.000000    4.186510
   Ca   Y    H 
     1     1    20
Direct configuration=     1
   0.99999966  0.99999966  0.99999713
   0.49999966  0.49999966  0.49999857
   0.25639989  0.49999966  0.11579980
   0.74359977  0.49999966  0.11579980
   0.49999966  0.25639989  0.11579980
   0.49999966  0.74359977  0.11579980
   0.74359977  0.49999966  0.88419758
   0.25639989  0.49999966  0.88419758
   0.49999966  0.25639989  0.88419758
   0.49999966  0.74359977  0.88419758
   0.99999966  0.49999966  0.75829796
   0.49999966  0.99999966  0.75829796
   0.99999966  0.49999966  0.24169941
   0.49999966  0.99999966  0.24169941
   0.23730009  0.99999966  0.37319892
   0.76269991  0.99999966  0.37319892
   0.99999966  0.23730009  0.37319892
   0.99999966  0.76269991  0.37319892
   0.76269991  0.99999966  0.62679822
   0.23730009  0.99999966  0.62679822
   0.99999966  0.23730009  0.62679822
   0.99999966  0.76269991  0.62679822
