
     Program PWSCF v.7.2 starts on 22Oct2025 at 18:20:24 

     This program is part of the open-source Quantum ESPRESSO suite
     for quantum simulation of materials; please cite
         "P. Giannozzi et al., J. Phys.:Condens. Matter 21 395502 (2009);
         "P. Giannozzi et al., J. Phys.:Condens. Matter 29 465901 (2017);
         "P. Giannozzi et al., J. Chem. Phys. 152 154105 (2020);
          URL http://www.quantum-espresso.org", 
     in publications or presentations arising from this work. More details at
     http://www.quantum-espresso.org/quote

     Parallel version (MPI & OpenMP), running on      64 processor cores
     Number of MPI processes:                64
     Threads/MPI process:                     1

     MPI processes distributed on     2 nodes
     177687 MiB available memory on the printing compute node when the environment starts

     Reading input from nscf.in
Warning: card &IONS ignored
Warning: card / ignored
Warning: card &CELL ignored
Warning: card / ignored
Warning: card   H   2.963799    0.703310    2.624097 ignored
Warning: card   H   2.963799    2.260490    2.624097 ignored

     Current dimensions of program PWSCF are:
     Max number of different atomic species (ntypx) = 10
     Max number of k-points (npk) =  40000
     Max angular momentum in pseudopotentials (lmaxx) =  4

     Atomic positions and unit cell read from directory:
     ./CaYH20.save/
     Atomic positions from file used, from input discarded

     file Ca.pbe-spn-kjpaw_psl.1.0.0.UPF: wavefunction(s)  3S renormalized
     file Y.pbe-spn-kjpaw_psl.1.0.0.UPF: wavefunction(s)  4S 4P renormalized
     file H.pbe-kjpaw_psl.1.0.0.UPF: wavefunction(s)  1S renormalized
     Message from routine setup:
     using ibrav=0 with symmetry is DISCOURAGED, use correct ibrav instead

     K-points division:     npool     =       4
     R & G space division:  proc/nbgrp/npool/nimage =      16
     Subspace diagonalization in iterative solution of the eigenvalue problem:
     a serial algorithm will be used


     Parallelization info
     --------------------
     sticks:   dense  smooth     PW     G-vecs:    dense   smooth      PW
     Min         125      62     18                 5929     2098     334
     Max         126      63     19                 5932     2101     339
     Sum        2001     997    293                94895    33591    5383

     Using Slab Decomposition



     bravais-lattice index     =            0
     lattice parameter (alat)  =       5.6008  a.u.
     unit-cell volume          =     248.1684 (a.u.)^3
     number of atoms/cell      =           20
     number of atomic types    =            3
     number of electrons       =        39.00
     number of Kohn-Sham states=           24
     kinetic-energy cutoff     =     100.0000  Ry
     charge density cutoff     =     800.0000  Ry
     Exchange-correlation= SLA  PW   PBX  PBC
                           (   1   4   3   4   0   0   0)

     celldm(1)=   5.600770  celldm(2)=   0.000000  celldm(3)=   0.000000
     celldm(4)=   0.000000  celldm(5)=   0.000000  celldm(6)=   0.000000

     crystal axes: (cart. coord. in units of alat)
               a(1) = (   1.000000   0.000000   0.000000 )  
               a(2) = (   0.000000   1.000000   0.000000 )  
               a(3) = (   0.000000   0.000000   1.412548 )  

     reciprocal axes: (cart. coord. in units 2 pi/alat)
               b(1) = (  1.000000  0.000000  0.000000 )  
               b(2) = (  0.000000  1.000000  0.000000 )  
               b(3) = (  0.000000  0.000000  0.707941 )  


     PseudoPot. # 1 for Ca read from file:
     /ccc/cont003/home/unisorbo/barreran/work/Pseudopotentials/pslibrary.1.0.0/pbe/PSEUDOPOTENTIALS/Ca.pbe-spn-kjpaw_psl.1.0.0.UPF
     MD5 check sum: b34883b1b0d01c8190387f8f386a7002
     Pseudo is Projector augmented-wave + core cor, Zval = 10.0
     Generated using 'atomic' code by A. Dal Corso  v.7.3.1
     Shape of augmentation charge: PSQ
     Using radial grid of 1169 points,  6 beta functions with: 
                l(1) =   0
                l(2) =   0
                l(3) =   1
                l(4) =   1
                l(5) =   2
                l(6) =   2
     Q(r) pseudized with 0 coefficients 


     PseudoPot. # 2 for Y  read from file:
     /ccc/cont003/home/unisorbo/barreran/work/Pseudopotentials/pslibrary.1.0.0/pbe/PSEUDOPOTENTIALS/Y.pbe-spn-kjpaw_psl.1.0.0.UPF
     MD5 check sum: 73af4e96bb828780d261eb8994067c6d
     Pseudo is Projector augmented-wave + core cor, Zval = 11.0
     Generated using 'atomic' code by A. Dal Corso  v.7.3.1
     Shape of augmentation charge: PSQ
     Using radial grid of 1223 points,  6 beta functions with: 
                l(1) =   0
                l(2) =   0
                l(3) =   1
                l(4) =   1
                l(5) =   2
                l(6) =   2
     Q(r) pseudized with 0 coefficients 


     PseudoPot. # 3 for H  read from file:
     /ccc/cont003/home/unisorbo/barreran/work/Pseudopotentials/pslibrary.1.0.0/pbe/PSEUDOPOTENTIALS/H.pbe-kjpaw_psl.1.0.0.UPF
     MD5 check sum: 8272f1d388df5211a683b4aab752f4e6
     Pseudo is Projector augmented-wave, Zval =  1.0
     Generated using 'atomic' code by A. Dal Corso  v.7.3.1
     Shape of augmentation charge: PSQ
     Using radial grid of  929 points,  2 beta functions with: 
                l(1) =   0
                l(2) =   0
     Q(r) pseudized with 0 coefficients 


     atomic species   valence    mass     pseudopotential
        Ca            10.00    40.07800     Ca( 1.00)
        Y             11.00    88.90500     Y ( 1.00)
        H              1.00     1.00700     H ( 1.00)

      4 Sym. Ops. (no inversion) found



   Cartesian axes

     site n.     atom                  positions (alat units)
         1           Ca  tau(   1) = (   0.9999997   0.9999997   1.4125440  )
         2           Y   tau(   2) = (   0.4999997   0.4999997   0.7062720  )
         3           H   tau(   3) = (   0.2563999   0.4999997   0.1635728  )
         4           H   tau(   4) = (   0.7435998   0.4999997   0.1635728  )
         5           H   tau(   5) = (   0.4999997   0.2563999   0.1635728  )
         6           H   tau(   6) = (   0.4999997   0.7435998   0.1635728  )
         7           H   tau(   7) = (   0.7435998   0.4999997   1.2489716  )
         8           H   tau(   8) = (   0.2563999   0.4999997   1.2489716  )
         9           H   tau(   9) = (   0.4999997   0.2563999   1.2489716  )
        10           H   tau(  10) = (   0.4999997   0.7435998   1.2489716  )
        11           H   tau(  11) = (   0.9999997   0.4999997   1.0711323  )
        12           H   tau(  12) = (   0.4999997   0.9999997   1.0711323  )
        13           H   tau(  13) = (   0.9999997   0.4999997   0.3414120  )
        14           H   tau(  14) = (   0.4999997   0.9999997   0.3414120  )
        15           H   tau(  15) = (   0.2373001   0.9999997   0.5271614  )
        16           H   tau(  16) = (   0.7626999   0.9999997   0.5271614  )
        17           H   tau(  17) = (   0.9999997   0.2373001   0.5271614  )
        18           H   tau(  18) = (   0.9999997   0.7626999   0.5271614  )
        19           H   tau(  19) = (   0.7626999   0.9999997   0.8853826  )
        20           H   tau(  20) = (   0.2373001   0.9999997   0.8853826  )

     number of k points=   486  Methfessel-Paxton smearing, width (Ry)=  0.0100

     Number of k-points >= 100: set verbosity='high' to print them.

     Dense  grid:    94895 G-vectors     FFT dimensions: (  54,  54,  72)

     Smooth grid:    33591 G-vectors     FFT dimensions: (  36,  36,  54)

     Estimated max dynamical RAM per process >      14.02 MB

     Estimated total dynamical RAM >     897.47 MB

     The potential is recalculated from file :
     ./CaYH20.save/charge-density

     Starting wfcs are   39 randomized atomic wfcs
     Checking if some PAW data can be deallocated... 

     Band Structure Calculation
     Davidson diagonalization with overlap
     c_bands:  1 eigenvalues not converged
     c_bands:  1 eigenvalues not converged
     c_bands:  1 eigenvalues not converged
     c_bands:  1 eigenvalues not converged
     c_bands:  1 eigenvalues not converged
     c_bands:  1 eigenvalues not converged
     c_bands:  1 eigenvalues not converged
     c_bands:  1 eigenvalues not converged
     c_bands:  1 eigenvalues not converged

     ethr =  1.00E-13,  avg # of iterations = 93.2

     total cpu time spent up to now is       57.3 secs

     End of band structure calculation

     Number of k-points >= 100: set verbosity='high' to print the bands.

     the Fermi energy is    24.1872 ev
     (compare with:    24.1872 eV, computed in scf)

     Writing all to output data dir ./CaYH20.save/

     init_run     :      0.70s CPU      0.78s WALL (       1 calls)
     electrons    :     53.40s CPU     55.75s WALL (       1 calls)

     Called by init_run:
     wfcinit      :      0.00s CPU      0.01s WALL (       1 calls)
     potinit      :      0.23s CPU      0.26s WALL (       1 calls)
     hinit0       :      0.40s CPU      0.42s WALL (       1 calls)

     Called by electrons:
     c_bands      :     53.39s CPU     55.73s WALL (       1 calls)
     v_of_rho     :      0.01s CPU      0.01s WALL (       1 calls)
     newd         :      0.01s CPU      0.02s WALL (       1 calls)
     PAW_pot      :      0.07s CPU      0.09s WALL (       1 calls)

     Called by c_bands:
     init_us_2    :      0.02s CPU      0.02s WALL (     122 calls)
     init_us_2:cp :      0.02s CPU      0.02s WALL (     122 calls)
     cegterg      :     44.83s CPU     46.94s WALL (     606 calls)

     Called by *egterg:
     cdiaghg      :      8.56s CPU      8.78s WALL (   11115 calls)
     h_psi        :     29.67s CPU     31.38s WALL (   11721 calls)
     s_psi        :      0.93s CPU      0.99s WALL (   11721 calls)
     g_psi        :      0.43s CPU      0.44s WALL (   10993 calls)

     Called by h_psi:
     h_psi:calbec :      1.62s CPU      1.72s WALL (   11721 calls)
     vloc_psi     :     26.85s CPU     28.40s WALL (   11721 calls)
     add_vuspsi   :      1.00s CPU      1.06s WALL (   11721 calls)

     General routines
     calbec       :      1.59s CPU      1.69s WALL (   11721 calls)
     fft          :      0.16s CPU      0.18s WALL (      13 calls)
     ffts         :      0.14s CPU      0.14s WALL (       1 calls)
     fftw         :     21.41s CPU     22.64s WALL (  392290 calls)
     interpolate  :      0.14s CPU      0.14s WALL (       1 calls)
     davcio       :      0.02s CPU      0.03s WALL (     244 calls)

     Parallel routines

     PWSCF        :     55.26s CPU     58.35s WALL


   This run was terminated on:  18:21:23  22Oct2025            

=------------------------------------------------------------------------------=
   JOB DONE.
=------------------------------------------------------------------------------=
