
     Program POST-PROC v.7.2 starts on 22Oct2025 at 18:21:26 

     This program is part of the open-source Quantum ESPRESSO suite
     for quantum simulation of materials; please cite
         "P. Giannozzi et al., J. Phys.:Condens. Matter 21 395502 (2009);
         "P. Giannozzi et al., J. Phys.:Condens. Matter 29 465901 (2017);
         "P. Giannozzi et al., J. Chem. Phys. 152 154105 (2020);
          URL http://www.quantum-espresso.org", 
     in publications or presentations arising from this work. More details at
     http://www.quantum-espresso.org/quote

     Parallel version (MPI & OpenMP), running on      16 processor cores
     Number of MPI processes:                16
     Threads/MPI process:                     1

     MPI processes distributed on     2 nodes
     R & G space division:  proc/nbgrp/npool/nimage =      16
     180142 MiB available memory on the printing compute node when the environment starts


     Reading xml data from directory:

     ./CaYH20.save/
     file Ca.pbe-spn-kjpaw_psl.1.0.0.UPF: wavefunction(s)  3S renormalized
     file Y.pbe-spn-kjpaw_psl.1.0.0.UPF: wavefunction(s)  4S 4P renormalized
     file H.pbe-kjpaw_psl.1.0.0.UPF: wavefunction(s)  1S renormalized

     IMPORTANT: XC functional enforced from input :
     Exchange-correlation= PBE
                           (   1   4   3   4   0   0   0)
     Any further DFT definition will be discarded
     Please, verify this is what you really want


     Parallelization info
     --------------------
     sticks:   dense  smooth     PW     G-vecs:    dense   smooth      PW
     Min         125      62     18                 5929     2098     334
     Max         126      63     19                 5932     2101     339
     Sum        2001     997    293                94895    33591    5383

     Using Slab Decomposition


     Calling punch_plot, plot_num =   8
     Message from routine do_elf:
     elf + US not fully implemented
     Writing data to file  CaYH20.ELF.dat
     Reading data from file  CaYH20.ELF.dat

     Writing data to be plotted to file CaYH20.ELF.cube
     Plot Type: 3D                     Output format: Gaussian cube

     POST-PROC    :      5.49s CPU      7.12s WALL


   This run was terminated on:  18:21:33  22Oct2025            

=------------------------------------------------------------------------------=
   JOB DONE.
=------------------------------------------------------------------------------=
