
     Program PWSCF v.7.2 starts on 22Oct2025 at 18:19:16 

     This program is part of the open-source Quantum ESPRESSO suite
     for quantum simulation of materials; please cite
         "P. Giannozzi et al., J. Phys.:Condens. Matter 21 395502 (2009);
         "P. Giannozzi et al., J. Phys.:Condens. Matter 29 465901 (2017);
         "P. Giannozzi et al., J. Chem. Phys. 152 154105 (2020);
          URL http://www.quantum-espresso.org", 
     in publications or presentations arising from this work. More details at
     http://www.quantum-espresso.org/quote

     Parallel version (MPI & OpenMP), running on      64 processor cores
     Number of MPI processes:                64
     Threads/MPI process:                     1

     MPI processes distributed on     2 nodes
     178336 MiB available memory on the printing compute node when the environment starts

     Reading input from scf.in
Warning: card &CELL ignored
Warning: card / ignored
Warning: card   H   2.963799    0.703310    2.624097 ignored
Warning: card   H   2.963799    2.260490    2.624097 ignored

     Current dimensions of program PWSCF are:
     Max number of different atomic species (ntypx) = 10
     Max number of k-points (npk) =  40000
     Max angular momentum in pseudopotentials (lmaxx) =  4
     file Ca.pbe-spn-kjpaw_psl.1.0.0.UPF: wavefunction(s)  3S renormalized
     file Y.pbe-spn-kjpaw_psl.1.0.0.UPF: wavefunction(s)  4S 4P renormalized
     file H.pbe-kjpaw_psl.1.0.0.UPF: wavefunction(s)  1S renormalized
     Message from routine setup:
     using ibrav=0 with symmetry is DISCOURAGED, use correct ibrav instead

     K-points division:     npool     =       4
     R & G space division:  proc/nbgrp/npool/nimage =      16
     Subspace diagonalization in iterative solution of the eigenvalue problem:
     a serial algorithm will be used


     Parallelization info
     --------------------
     sticks:   dense  smooth     PW     G-vecs:    dense   smooth      PW
     Min         125      62     18                 5929     2098     334
     Max         126      63     19                 5932     2101     339
     Sum        2001     997    293                94895    33591    5383

     Using Slab Decomposition



     bravais-lattice index     =            0
     lattice parameter (alat)  =       5.6008  a.u.
     unit-cell volume          =     248.1684 (a.u.)^3
     number of atoms/cell      =           20
     number of atomic types    =            3
     number of electrons       =        39.00
     number of Kohn-Sham states=           24
     kinetic-energy cutoff     =     100.0000  Ry
     charge density cutoff     =     800.0000  Ry
     scf convergence threshold =      1.0E-12
     mixing beta               =       0.2000
     number of iterations used =            8  plain     mixing
     Exchange-correlation= SLA  PW   PBX  PBC
                           (   1   4   3   4   0   0   0)

     celldm(1)=   5.600770  celldm(2)=   0.000000  celldm(3)=   0.000000
     celldm(4)=   0.000000  celldm(5)=   0.000000  celldm(6)=   0.000000

     crystal axes: (cart. coord. in units of alat)
               a(1) = (   1.000000   0.000000   0.000000 )  
               a(2) = (   0.000000   1.000000   0.000000 )  
               a(3) = (   0.000000   0.000000   1.412548 )  

     reciprocal axes: (cart. coord. in units 2 pi/alat)
               b(1) = (  1.000000  0.000000  0.000000 )  
               b(2) = (  0.000000  1.000000  0.000000 )  
               b(3) = (  0.000000  0.000000  0.707941 )  


     PseudoPot. # 1 for Ca read from file:
     /ccc/cont003/home/unisorbo/barreran/work/Pseudopotentials/pslibrary.1.0.0/pbe/PSEUDOPOTENTIALS/Ca.pbe-spn-kjpaw_psl.1.0.0.UPF
     MD5 check sum: b34883b1b0d01c8190387f8f386a7002
     Pseudo is Projector augmented-wave + core cor, Zval = 10.0
     Generated using 'atomic' code by A. Dal Corso  v.7.3.1
     Shape of augmentation charge: PSQ
     Using radial grid of 1169 points,  6 beta functions with: 
                l(1) =   0
                l(2) =   0
                l(3) =   1
                l(4) =   1
                l(5) =   2
                l(6) =   2
     Q(r) pseudized with 0 coefficients 


     PseudoPot. # 2 for Y  read from file:
     /ccc/cont003/home/unisorbo/barreran/work/Pseudopotentials/pslibrary.1.0.0/pbe/PSEUDOPOTENTIALS/Y.pbe-spn-kjpaw_psl.1.0.0.UPF
     MD5 check sum: 73af4e96bb828780d261eb8994067c6d
     Pseudo is Projector augmented-wave + core cor, Zval = 11.0
     Generated using 'atomic' code by A. Dal Corso  v.7.3.1
     Shape of augmentation charge: PSQ
     Using radial grid of 1223 points,  6 beta functions with: 
                l(1) =   0
                l(2) =   0
                l(3) =   1
                l(4) =   1
                l(5) =   2
                l(6) =   2
     Q(r) pseudized with 0 coefficients 


     PseudoPot. # 3 for H  read from file:
     /ccc/cont003/home/unisorbo/barreran/work/Pseudopotentials/pslibrary.1.0.0/pbe/PSEUDOPOTENTIALS/H.pbe-kjpaw_psl.1.0.0.UPF
     MD5 check sum: 8272f1d388df5211a683b4aab752f4e6
     Pseudo is Projector augmented-wave, Zval =  1.0
     Generated using 'atomic' code by A. Dal Corso  v.7.3.1
     Shape of augmentation charge: PSQ
     Using radial grid of  929 points,  2 beta functions with: 
                l(1) =   0
                l(2) =   0
     Q(r) pseudized with 0 coefficients 


     atomic species   valence    mass     pseudopotential
        Ca            10.00    40.07800     Ca( 1.00)
        Y             11.00    88.90500     Y ( 1.00)
        H              1.00     1.00700     H ( 1.00)

      4 Sym. Ops. (no inversion) found



   Cartesian axes

     site n.     atom                  positions (alat units)
         1           Ca  tau(   1) = (   0.9999997   0.9999997   1.4125440  )
         2           Y   tau(   2) = (   0.4999997   0.4999997   0.7062720  )
         3           H   tau(   3) = (   0.2563999   0.4999997   0.1635728  )
         4           H   tau(   4) = (   0.7435998   0.4999997   0.1635728  )
         5           H   tau(   5) = (   0.4999997   0.2563999   0.1635728  )
         6           H   tau(   6) = (   0.4999997   0.7435998   0.1635728  )
         7           H   tau(   7) = (   0.7435998   0.4999997   1.2489716  )
         8           H   tau(   8) = (   0.2563999   0.4999997   1.2489716  )
         9           H   tau(   9) = (   0.4999997   0.2563999   1.2489716  )
        10           H   tau(  10) = (   0.4999997   0.7435998   1.2489716  )
        11           H   tau(  11) = (   0.9999997   0.4999997   1.0711323  )
        12           H   tau(  12) = (   0.4999997   0.9999997   1.0711323  )
        13           H   tau(  13) = (   0.9999997   0.4999997   0.3414120  )
        14           H   tau(  14) = (   0.4999997   0.9999997   0.3414120  )
        15           H   tau(  15) = (   0.2373001   0.9999997   0.5271614  )
        16           H   tau(  16) = (   0.7626999   0.9999997   0.5271614  )
        17           H   tau(  17) = (   0.9999997   0.2373001   0.5271614  )
        18           H   tau(  18) = (   0.9999997   0.7626999   0.5271614  )
        19           H   tau(  19) = (   0.7626999   0.9999997   0.8853826  )
        20           H   tau(  20) = (   0.2373001   0.9999997   0.8853826  )

     number of k points=   486  Methfessel-Paxton smearing, width (Ry)=  0.0100

     Number of k-points >= 100: set verbosity='high' to print them.

     Dense  grid:    94895 G-vectors     FFT dimensions: (  54,  54,  72)

     Smooth grid:    33591 G-vectors     FFT dimensions: (  36,  36,  54)

     Estimated max dynamical RAM per process >      27.33 MB

     Estimated total dynamical RAM >       1.64 GB

     Initial potential from superposition of free atoms

     starting charge      38.9909, renormalised to      39.0000
     Starting wfcs are   39 randomized atomic wfcs
     Checking if some PAW data can be deallocated... 

     total cpu time spent up to now is        2.5 secs

     Self-consistent Calculation

     iteration #  1     ecut=   100.00 Ry     beta= 0.20
     Davidson diagonalization with overlap
     ethr =  1.00E-02,  avg # of iterations =  4.8

     total cpu time spent up to now is        5.6 secs

     total energy              =    -432.83800671 Ry
     estimated scf accuracy    <       0.64644585 Ry

     iteration #  2     ecut=   100.00 Ry     beta= 0.20
     Davidson diagonalization with overlap
     ethr =  1.66E-03,  avg # of iterations =  2.5

     total cpu time spent up to now is        8.0 secs

     total energy              =    -432.76498848 Ry
     estimated scf accuracy    <       0.29846967 Ry

     iteration #  3     ecut=   100.00 Ry     beta= 0.20
     Davidson diagonalization with overlap
     ethr =  7.65E-04,  avg # of iterations =  5.5

     total cpu time spent up to now is       11.3 secs

     total energy              =    -432.83202983 Ry
     estimated scf accuracy    <       0.02569506 Ry

     iteration #  4     ecut=   100.00 Ry     beta= 0.20
     Davidson diagonalization with overlap
     ethr =  6.59E-05,  avg # of iterations =  8.0

     total cpu time spent up to now is       15.3 secs

     total energy              =    -432.84004289 Ry
     estimated scf accuracy    <       0.00940125 Ry

     iteration #  5     ecut=   100.00 Ry     beta= 0.20
     Davidson diagonalization with overlap
     ethr =  2.41E-05,  avg # of iterations =  2.4

     total cpu time spent up to now is       17.6 secs

     total energy              =    -432.83964721 Ry
     estimated scf accuracy    <       0.00322820 Ry

     iteration #  6     ecut=   100.00 Ry     beta= 0.20
     Davidson diagonalization with overlap
     ethr =  8.28E-06,  avg # of iterations =  5.7

     total cpu time spent up to now is       20.9 secs

     total energy              =    -432.83979844 Ry
     estimated scf accuracy    <       0.00050717 Ry

     iteration #  7     ecut=   100.00 Ry     beta= 0.20
     Davidson diagonalization with overlap
     ethr =  1.30E-06,  avg # of iterations =  4.6

     total cpu time spent up to now is       24.0 secs

     total energy              =    -432.83992642 Ry
     estimated scf accuracy    <       0.00024471 Ry

     iteration #  8     ecut=   100.00 Ry     beta= 0.20
     Davidson diagonalization with overlap
     ethr =  6.27E-07,  avg # of iterations =  2.4

     total cpu time spent up to now is       26.5 secs

     total energy              =    -432.83996219 Ry
     estimated scf accuracy    <       0.00002712 Ry

     iteration #  9     ecut=   100.00 Ry     beta= 0.20
     Davidson diagonalization with overlap
     c_bands:  1 eigenvalues not converged
     ethr =  6.96E-08,  avg # of iterations =  4.1

     total cpu time spent up to now is       29.3 secs

     total energy              =    -432.83997087 Ry
     estimated scf accuracy    <       0.00000269 Ry

     iteration # 10     ecut=   100.00 Ry     beta= 0.20
     Davidson diagonalization with overlap
     ethr =  6.89E-09,  avg # of iterations =  4.3

     total cpu time spent up to now is       32.4 secs

     total energy              =    -432.83996873 Ry
     estimated scf accuracy    <       0.00000979 Ry

     iteration # 11     ecut=   100.00 Ry     beta= 0.20
     Davidson diagonalization with overlap
     ethr =  6.89E-09,  avg # of iterations =  3.8

     total cpu time spent up to now is       35.3 secs

     total energy              =    -432.83997049 Ry
     estimated scf accuracy    <       0.00000067 Ry

     iteration # 12     ecut=   100.00 Ry     beta= 0.20
     Davidson diagonalization with overlap
     ethr =  1.71E-09,  avg # of iterations =  2.6

     total cpu time spent up to now is       37.8 secs

     total energy              =    -432.83997063 Ry
     estimated scf accuracy    <       0.00000004 Ry

     iteration # 13     ecut=   100.00 Ry     beta= 0.20
     Davidson diagonalization with overlap
     ethr =  9.70E-11,  avg # of iterations =  5.1

     total cpu time spent up to now is       41.3 secs

     total energy              =    -432.83997065 Ry
     estimated scf accuracy    <       0.00000004 Ry

     iteration # 14     ecut=   100.00 Ry     beta= 0.20
     Davidson diagonalization with overlap
     ethr =  9.70E-11,  avg # of iterations =  2.0

     total cpu time spent up to now is       43.6 secs

     total energy              =    -432.83997066 Ry
     estimated scf accuracy    <          8.4E-10 Ry

     iteration # 15     ecut=   100.00 Ry     beta= 0.20
     Davidson diagonalization with overlap
     ethr =  2.16E-12,  avg # of iterations =  5.8

     total cpu time spent up to now is       47.4 secs

     total energy              =    -432.83997066 Ry
     estimated scf accuracy    <          2.2E-09 Ry

     iteration # 16     ecut=   100.00 Ry     beta= 0.20
     Davidson diagonalization with overlap
     ethr =  2.16E-12,  avg # of iterations =  4.3

     total cpu time spent up to now is       50.3 secs

     total energy              =    -432.83997066 Ry
     estimated scf accuracy    <          8.3E-10 Ry

     iteration # 17     ecut=   100.00 Ry     beta= 0.20
     Davidson diagonalization with overlap
     ethr =  2.13E-12,  avg # of iterations =  2.0

     total cpu time spent up to now is       52.5 secs

     total energy              =    -432.83997066 Ry
     estimated scf accuracy    <          5.7E-11 Ry

     iteration # 18     ecut=   100.00 Ry     beta= 0.20
     Davidson diagonalization with overlap
     ethr =  1.46E-13,  avg # of iterations =  4.9

     total cpu time spent up to now is       55.6 secs

     total energy              =    -432.83997066 Ry
     estimated scf accuracy    <          7.4E-12 Ry

     iteration # 19     ecut=   100.00 Ry     beta= 0.20
     Davidson diagonalization with overlap
     ethr =  1.00E-13,  avg # of iterations =  1.3

     total cpu time spent up to now is       57.5 secs

     total energy              =    -432.83997067 Ry
     estimated scf accuracy    <          1.2E-12 Ry

     iteration # 20     ecut=   100.00 Ry     beta= 0.20
     Davidson diagonalization with overlap
     ethr =  1.00E-13,  avg # of iterations =  1.1

     total cpu time spent up to now is       59.4 secs

     total energy              =    -432.83997067 Ry
     estimated scf accuracy    <          2.0E-12 Ry

     iteration # 21     ecut=   100.00 Ry     beta= 0.20
     Davidson diagonalization with overlap
     ethr =  1.00E-13,  avg # of iterations =  1.0

     total cpu time spent up to now is       61.3 secs

     End of self-consistent calculation

     Number of k-points >= 100: set verbosity='high' to print the bands.

     the Fermi energy is    24.1872 ev

!    total energy              =    -432.83997067 Ry
     total all-electron energy =     -8148.234185 Ry
     estimated scf accuracy    <          2.1E-13 Ry
     smearing contrib. (-TS)   =       0.00006540 Ry
     internal energy E=F+TS    =    -432.84003606 Ry

     The total energy is F=E-TS. E is the sum of the following terms:
     one-electron contribution =      47.08242826 Ry
     hartree contribution      =      13.59561215 Ry
     xc contribution           =     -48.65118944 Ry
     ewald contribution        =    -183.82930243 Ry
     one-center paw contrib.   =    -261.03758461 Ry

     convergence has been achieved in  21 iterations

     Writing all to output data dir ./CaYH20.save/

     init_run     :      1.84s CPU      2.03s WALL (       1 calls)
     electrons    :     55.52s CPU     58.81s WALL (       1 calls)

     Called by init_run:
     wfcinit      :      1.00s CPU      1.09s WALL (       1 calls)
     potinit      :      0.32s CPU      0.34s WALL (       1 calls)
     hinit0       :      0.38s CPU      0.44s WALL (       1 calls)

     Called by electrons:
     c_bands      :     46.95s CPU     49.48s WALL (      21 calls)
     sum_band     :      6.46s CPU      6.90s WALL (      21 calls)
     v_of_rho     :      0.21s CPU      0.23s WALL (      22 calls)
     newd         :      0.26s CPU      0.32s WALL (      22 calls)
     PAW_pot      :      1.63s CPU      1.85s WALL (      22 calls)
     mix_rho      :      0.04s CPU      0.04s WALL (      21 calls)

     Called by c_bands:
     init_us_2    :      0.86s CPU      0.90s WALL (    5246 calls)
     init_us_2:cp :      0.85s CPU      0.89s WALL (    5246 calls)
     cegterg      :     39.15s CPU     41.46s WALL (    2562 calls)

     Called by *egterg:
     cdiaghg      :      7.60s CPU      7.94s WALL (   12030 calls)
     h_psi        :     26.81s CPU     28.63s WALL (   12152 calls)
     s_psi        :      0.88s CPU      0.94s WALL (   12152 calls)
     g_psi        :      0.27s CPU      0.28s WALL (    9468 calls)

     Called by h_psi:
     h_psi:calbec :      1.53s CPU      1.64s WALL (   12152 calls)
     vloc_psi     :     24.12s CPU     25.76s WALL (   12152 calls)
     add_vuspsi   :      0.94s CPU      1.01s WALL (   12152 calls)

     General routines
     calbec       :      1.89s CPU      2.03s WALL (   14714 calls)
     fft          :      0.25s CPU      0.31s WALL (     284 calls)
     ffts         :      0.16s CPU      0.16s WALL (      43 calls)
     fftw         :     22.38s CPU     23.92s WALL (  415076 calls)
     interpolate  :      0.15s CPU      0.16s WALL (      22 calls)

     Parallel routines

     PWSCF        :     58.21s CPU   1m 2.32s WALL


   This run was terminated on:  18:20:19  22Oct2025            

=------------------------------------------------------------------------------=
   JOB DONE.
=------------------------------------------------------------------------------=
